 vasp.5.4.4.18Apr17-6-g9f103f2a35 (build Jul 12 2018 13:43:46) complex           
 executed on             LinuxGNU date 2019.06.25  21:09:33
 running on    1 total cores
 distrk:  each k-point on    1 cores,    1 groups
 distr:  one band on NCORES_PER_BAND=   1 cores,    1 groups


--------------------------------------------------------------------------------------------------------


 INCAR:
 POTCAR:    PAW_PBE H 15Jun2001                   
 POTCAR:    PAW_PBE C 08Apr2002                   
 POTCAR:    PAW_PBE H 15Jun2001                   
   VRHFIN =H: ultrasoft test                                                    
   LEXCH  = PE                                                                  
   EATOM  =    12.4884 eV,    0.9179 Ry                                         
                                                                                
   TITEL  = PAW_PBE H 15Jun2001                                                 
   LULTRA =        F    use ultrasoft PP ?                                      
   IUNSCR =        0    unscreen: 0-lin 1-nonlin 2-no                           
   RPACOR =    0.000    partial core radius                                     
   POMASS =    1.000; ZVAL   =    1.000    mass and valenz                      
   RCORE  =    1.100    outmost cutoff radius                                   
   RWIGS  =    0.700; RWIGS  =    0.370    wigner-seitz radius (au A)           
   ENMAX  =  250.000; ENMIN  =  200.000 eV                                      
   RCLOC  =    0.701    cutoff for local pot                                    
   LCOR   =        T    correct aug charges                                     
   LPAW   =        T    paw PP                                                  
   EAUG   =  400.000                                                            
   RMAX   =    1.123    core radius for proj-oper                               
   RAUG   =    1.200    factor for augmentation sphere                          
   RDEP   =    1.112    radius for radial grids                                 
   RDEPT  =    0.926    core radius for aug-charge                              
                                                                                
   Atomic configuration                                                         
    2 entries                                                                   
     n  l   j            E        occ.                                          
     1  0  0.50        -6.4927   1.0000                                         
     2  1  0.50        -3.4015   0.0000                                         
   Description                                                                  
     l       E           TYP  RCUT    TYP  RCUT                                 
     0     -6.4927494     23  1.100                                             
     0      6.8029130     23  1.100                                             
     1     -4.0817478     23  1.100                                             
  local pseudopotential read in
  atomic valenz-charges read in
  non local Contribution for L=           0  read in
    real space projection operators read in
  non local Contribution for L=           0  read in
    real space projection operators read in
  non local Contribution for L=           1  read in
    real space projection operators read in
    PAW grid and wavefunctions read in

   number of l-projection  operators is LMAX  =           3
   number of lm-projection operators is LMMAX =           5

 POTCAR:    PAW_PBE C 08Apr2002                   
   VRHFIN =C: s2p2                                                              
   LEXCH  = PE                                                                  
   EATOM  =   147.1560 eV,   10.8157 Ry                                         
                                                                                
   TITEL  = PAW_PBE C 08Apr2002                                                 
   LULTRA =        F    use ultrasoft PP ?                                      
   IUNSCR =        1    unscreen: 0-lin 1-nonlin 2-no                           
   RPACOR =    1.200    partial core radius                                     
   POMASS =   12.011; ZVAL   =    4.000    mass and valenz                      
   RCORE  =    1.500    outmost cutoff radius                                   
   RWIGS  =    1.630; RWIGS  =    0.863    wigner-seitz radius (au A)           
   ENMAX  =  400.000; ENMIN  =  300.000 eV                                      
   ICORE  =        2    local potential                                         
   LCOR   =        T    correct aug charges                                     
   LPAW   =        T    paw PP                                                  
   EAUG   =  644.873                                                            
   DEXC   =    0.000                                                            
   RMAX   =    1.529    core radius for proj-oper                               
   RAUG   =    1.300    factor for augmentation sphere                          
   RDEP   =    1.501    radius for radial grids                                 
   RDEPT  =    1.300    core radius for aug-charge                              
                                                                                
   Atomic configuration                                                         
    4 entries                                                                   
     n  l   j            E        occ.                                          
     1  0  0.50      -273.3789   2.0000                                         
     2  0  0.50       -13.7508   2.0000                                         
     2  1  0.50        -5.2854   2.0000                                         
     3  2  1.50        -5.4423   0.0000                                         
   Description                                                                  
     l       E           TYP  RCUT    TYP  RCUT                                 
     0    -13.7508458     23  1.200                                             
     0     -8.2022199     23  1.200                                             
     1     -5.2854383     23  1.500                                             
     1     34.0145650     23  1.500                                             
     2     -5.4423304      7  1.500                                             
  local pseudopotential read in
  partial core-charges read in
  partial kinetic energy density read in
  atomic valenz-charges read in
  non local Contribution for L=           0  read in
    real space projection operators read in
  non local Contribution for L=           0  read in
    real space projection operators read in
  non local Contribution for L=           1  read in
    real space projection operators read in
  non local Contribution for L=           1  read in
    real space projection operators read in
    PAW grid and wavefunctions read in

   number of l-projection  operators is LMAX  =           4
   number of lm-projection operators is LMMAX =           8


 ----------------------------------------------------------------------------- 
|                                                                             |
|  ADVICE TO THIS USER RUNNING 'VASP/VAMP'   (HEAR YOUR MASTER'S VOICE ...):  |
|                                                                             |
|      You have a (more or less) 'small supercell' and for smaller cells      |
|      it is recommended  to use the reciprocal-space projection scheme!      |
|      The real space optimization is not  efficient for small cells and it   |
|      is also less accurate ...                                              |
|      Therefore set LREAL=.FALSE. in the  INCAR file                         |
|                                                                             |
 ----------------------------------------------------------------------------- 

 Optimization of the real space projectors (new method)

 maximal supplied QI-value         = 34.20
 optimisation between [QCUT,QGAM] = [  9.92, 20.18] = [ 27.55,114.04] Ry 
 Optimized for a Real-space Cutoff    1.34 Angstroem

   l    n(q)    QCUT    max X(q) W(low)/X(q) W(high)/X(q)  e(spline) 
   0      8     9.919    19.460    0.16E-03    0.20E-03    0.36E-06
   0      8     9.919    12.209    0.16E-03    0.20E-03    0.35E-06
   1      8     9.919     4.655    0.19E-03    0.46E-03    0.40E-06
 Optimization of the real space projectors (new method)

 maximal supplied QI-value         = 25.13
 optimisation between [QCUT,QGAM] = [ 10.05, 20.36] = [ 28.30,116.06] Ry 
 Optimized for a Real-space Cutoff    1.51 Angstroem

   l    n(q)    QCUT    max X(q) W(low)/X(q) W(high)/X(q)  e(spline) 
   0      9    10.053   115.676    0.19E-03    0.21E-03    0.38E-06
   0      9    10.053    87.132    0.19E-03    0.21E-03    0.38E-06
   1      9    10.053     4.429    0.87E-04    0.11E-03    0.39E-06
   1      9    10.053     2.733    0.59E-04    0.62E-04    0.43E-06
  PAW_PBE H 15Jun2001                   :
 energy of atom  1       EATOM=  -12.4884
 kinetic energy error for atom=    0.0098 (will be added to EATOM!!)
  PAW_PBE C 08Apr2002                   :
 energy of atom  2       EATOM= -147.1560
 kinetic energy error for atom=    0.0288 (will be added to EATOM!!)


 POSCAR: POSCAR file written by OVITO            
  positions in cartesian coordinates
  No initial velocities read in
 exchange correlation table for  LEXCH =        8
   RHO(1)=    0.500       N(1)  =     2000
   RHO(2)=  100.500       N(2)  =     4000



--------------------------------------------------------------------------------------------------------


 ion  position               nearest neighbor table
   1  0.439  0.382  0.466-   5 1.11
   2  0.526  0.482  0.339-   5 1.08
   3  0.598  0.453  0.503-   5 1.16
   4  0.450  0.555  0.485-   5 1.11
   5  0.502  0.469  0.444-   2 1.08   1 1.11   4 1.11   3 1.16


IMPORTANT INFORMATION: All symmetrisations will be switched off!
NOSYMM: (Re-)initialisation of all symmetry stuff for point group C_1.




Automatic generation of k-mesh.
 generate k-points for:    1    1    1
Space group operators:
 irot       det(A)        alpha          n_x          n_y          n_z        tau_x        tau_y        tau_z
    1     1.000000     0.000000     1.000000     0.000000     0.000000     0.000000     0.000000     0.000000
 
 Subroutine IBZKPT returns following result:
 ===========================================
 
 Found      1 irreducible k-points:
 
 Following reciprocal coordinates:
            Coordinates               Weight
  0.000000  0.000000  0.000000      1.000000
 
 Following cartesian coordinates:
            Coordinates               Weight
  0.000000  0.000000  0.000000      1.000000
 


--------------------------------------------------------------------------------------------------------




 Dimension of arrays:
   k-points           NKPTS =      1   k-points in BZ     NKDIM =      1   number of bands    NBANDS=      8
   number of dos      NEDOS =    301   number of ions     NIONS =      5
   non local maximal  LDIM  =      4   non local SUM 2l+1 LMDIM =      8
   total plane-waves  NPLWV = 343000
   max r-space proj   IRMAX =   4776   max aug-charges    IRDMAX=   4078
   dimension x,y,z NGX =    70 NGY =   70 NGZ =   70
   dimension x,y,z NGXF=   140 NGYF=  140 NGZF=  140
   support grid    NGXF=   140 NGYF=  140 NGZF=  140
   ions per type =               4   1
   NGX,Y,Z   is equivalent  to a cutoff of  11.32, 11.52, 11.58 a.u.
   NGXF,Y,Z  is equivalent  to a cutoff of  22.63, 23.03, 23.17 a.u.

 SYSTEM =  unknown system                          
 POSCAR =  POSCAR file written by OVITO            

 Startparameter for this run:
   NWRITE =      2    write-flag & timer
   PREC   = a         normal or accurate (medium, high low for compatibility)
   ISTART =      0    job   : 0-new  1-cont  2-samecut
   ICHARG =      2    charge: 1-file 2-atom 10-const
   ISPIN  =      1    spin polarized calculation?
   LNONCOLLINEAR =      F non collinear calculations
   LSORBIT =      F    spin-orbit coupling
   INIWAV =      1    electr: 0-lowe 1-rand  2-diag
   LASPH  =      F    aspherical Exc in radial PAW
   METAGGA=      F    non-selfconsistent MetaGGA calc.

 Electronic Relaxation 1
   ENCUT  =  400.0 eV  29.40 Ry    5.42 a.u.  16.77 16.48 16.38*2*pi/ulx,y,z
   ENINI  =  400.0     initial cutoff
   ENAUG  =  644.9 eV  augmentation charge cutoff
   NELM   =    120;   NELMIN=  4; NELMDL= -5     # of ELM steps 
   EDIFF  = 0.1E-05   stopping-criterion for ELM
   LREAL  =      T    real-space projection
   NLSPLINE    = F    spline interpolate recip. space projectors
   LCOMPAT=      F    compatible to vasp.4.4
   GGA_COMPAT  = T    GGA compatible to vasp.4.4-vasp.4.6
   LMAXPAW     = -100 max onsite density
   LMAXMIX     =    2 max onsite mixed and CHGCAR
   VOSKOWN=      0    Vosko Wilk Nusair interpolation
   ROPT   =   -0.00025  -0.00025
 Ionic relaxation
   EDIFFG = 0.1E-04   stopping-criterion for IOM
   NSW    =      0    number of steps for IOM
   NBLOCK =      1;   KBLOCK =      1    inner block; outer block 
   IBRION =     -1    ionic relax: 0-MD 1-quasi-New 2-CG
   NFREE  =      0    steps in history (QN), initial steepest desc. (CG)
   ISIF   =      2    stress and relaxation
   IWAVPR =     10    prediction:  0-non 1-charg 2-wave 3-comb
   ISYM   =      0    0-nonsym 1-usesym 2-fastsym
   LCORR  =      T    Harris-Foulkes like correction to forces

   POTIM  = 0.5000    time-step for ionic-motion
   TEIN   =    0.0    initial temperature
   TEBEG  =    0.0;   TEEND  =   0.0 temperature during run
   SMASS  =  -3.00    Nose mass-parameter (am)
   estimated Nose-frequenzy (Omega)   =  0.10E-29 period in steps =****** mass=  -0.242E-26a.u.
   SCALEE = 1.0000    scale energy and forces
   NPACO  =    256;   APACO  = 16.0  distance and # of slots for P.C.
   PSTRESS=    0.0 pullay stress

  Mass of Ions in am
   POMASS =   1.00 12.01
  Ionic Valenz
   ZVAL   =   1.00  4.00
  Atomic Wigner-Seitz radii
   RWIGS  =  -1.00 -1.00
  virtual crystal weights 
   VCA    =   1.00  1.00
   NELECT =       8.0000    total number of electrons
   NUPDOWN=      -1.0000    fix difference up-down

 DOS related values:
   EMIN   =  10.00;   EMAX   =-10.00  energy-range for DOS
   EFERMI =   0.00
   ISMEAR =     0;   SIGMA  =   0.05  broadening in eV -4-tet -1-fermi 0-gaus

 Electronic relaxation 2 (details)
   IALGO  =     38    algorithm
   LDIAG  =      T    sub-space diagonalisation (order eigenvalues)
   LSUBROT=      F    optimize rotation matrix (better conditioning)
   TURBO    =      0    0=normal 1=particle mesh
   IRESTART =      0    0=no restart 2=restart with 2 vectors
   NREBOOT  =      0    no. of reboots
   NMIN     =      0    reboot dimension
   EREF     =   0.00    reference energy to select bands
   IMIX   =      4    mixing-type and parameters
     AMIX     =   0.40;   BMIX     =  1.00
     AMIX_MAG =   1.60;   BMIX_MAG =  1.00
     AMIN     =   0.10
     WC   =   100.;   INIMIX=   1;  MIXPRE=   1;  MAXMIX= -45

 Intra band minimization:
   WEIMIN = 0.0000     energy-eigenvalue tresh-hold
   EBREAK =  0.31E-07  absolut break condition
   DEPER  =   0.30     relativ break condition  

   TIME   =   0.40     timestep for ELM

  volume/ion in A,a.u.               =     208.72      1408.54
  Fermi-wavevector in a.u.,A,eV,Ry     =   0.322793  0.609989  1.417659  0.104195
  Thomas-Fermi vector in A             =   1.211478

 Write flags
   LWAVE        =      F    write WAVECAR
   LDOWNSAMPLE  =      F    k-point downsampling of WAVECAR
   LCHARG       =      F    write CHGCAR
   LVTOT        =      F    write LOCPOT, total local potential
   LVHAR        =      F    write LOCPOT, Hartree potential only
   LELF         =      F    write electronic localiz. function (ELF)
   LORBIT       =      0    0 simple, 1 ext, 2 COOP (PROOUT), +10 PAW based schemes


 Dipole corrections
   LMONO  =      F    monopole corrections only (constant potential shift)
   LDIPOL =      F    correct potential (dipole corrections)
   IDIPOL =      0    1-x, 2-y, 3-z, 4-all directions 
   EPSILON=  1.0000000 bulk dielectric constant

 Exchange correlation treatment:
   GGA     =    --    GGA type
   LEXCH   =     8    internal setting for exchange type
   VOSKOWN=      0    Vosko Wilk Nusair interpolation
   LHFCALC =     F    Hartree Fock is set to
   LHFONE  =     F    Hartree Fock one center treatment
   AEXX    =    0.0000 exact exchange contribution

 Linear response parameters
   LEPSILON=     F    determine dielectric tensor
   LRPA    =     F    only Hartree local field effects (RPA)
   LNABLA  =     F    use nabla operator in PAW spheres
   LVEL    =     F    velocity operator in full k-point grid
   LINTERFAST=   F  fast interpolation
   KINTER  =     0    interpolate to denser k-point grid
   CSHIFT  =0.1000    complex shift for real part using Kramers Kronig
   OMEGAMAX=  -1.0    maximum frequency
   DEG_THRESHOLD= 0.2000000E-02 threshold for treating states as degnerate
   RTIME   =   -0.100 relaxation time in fs
  (WPLASMAI=    0.000 imaginary part of plasma frequency in eV, 0.658/RTIME)
   DFIELD  = 0.0000000 0.0000000 0.0000000 field for delta impulse in time

 Orbital magnetization related:
   ORBITALMAG=     F  switch on orbital magnetization
   LCHIMAG   =     F  perturbation theory with respect to B field
   DQ        =  0.001000  dq finite difference perturbation B field
   LLRAUG    =     F  two centre corrections for induced B field



--------------------------------------------------------------------------------------------------------


 Static calculation
 charge density and potential will be updated during run
 non-spin polarized calculation
 Variant of blocked Davidson
 Davidson routine will perform the subspace rotation
 perform sub-space diagonalisation
    after iterative eigenvector-optimisation
 modified Broyden-mixing scheme, WC =      100.0
 initial mixing is a Kerker type mixing with AMIX =  0.4000 and BMIX =      1.0000
 Hartree-type preconditioning will be used
 using additional bands            4
 real space projection scheme for non local part
 use partial core corrections
 calculate Harris-corrections to forces   (improved forces if not selfconsistent)
 use gradient corrections 
 use of overlap-Matrix (Vanderbilt PP)
 Gauss-broadening in eV      SIGMA  =   0.05


--------------------------------------------------------------------------------------------------------


  energy-cutoff  :      400.00
  volume of cell :     1043.62
      direct lattice vectors                 reciprocal lattice vectors
    10.283040100  0.000000000  0.000000000     0.097247506  0.001455494 -0.000446198
    -0.151212700 10.103137000  0.000000000     0.000000000  0.098979159 -0.000441363
     0.045420500  0.044793900 10.045377700     0.000000000 -0.000000000  0.099548273

  length of vectors
    10.283040100 10.104268530 10.045580255     0.097259421  0.098980143  0.099548273



 k-points in units of 2pi/SCALE and weight: read from INCAR                         
   0.00000000  0.00000000  0.00000000       1.000

 k-points in reciprocal lattice and weights: read from INCAR                         
   0.00000000  0.00000000  0.00000000       1.000

 position of ions in fractional coordinates (direct lattice) 
   0.43893502  0.38207280  0.46582619
   0.52623715  0.48210180  0.33910024
   0.59750239  0.45326877  0.50349923
   0.44991723  0.55483195  0.48548201
   0.50238933  0.46873160  0.44359507

 position of ions in cartesian coordinates  (Angst):
   4.47697020  3.88100000  4.67940000
   5.35381990  4.88593020  3.40639000
   6.09847020  4.60199020  5.05783990
   4.56467010  5.62728980  4.87685020
   5.11535980  4.75552990  4.45608000



--------------------------------------------------------------------------------------------------------


 k-point  1 :   0.0000 0.0000 0.0000  plane waves:   19005

 maximum and minimum number of plane-waves per node :     19005    19005

 maximum number of plane-waves:     19005
 maximum index in each direction: 
   IXMAX=   16   IYMAX=   16   IZMAX=   16
   IXMIN=  -16   IYMIN=  -16   IZMIN=  -16


 serial   3D FFT for wavefunctions
 parallel 3D FFT for charge:
    minimum data exchange during FFTs selected (reduces bandwidth)


 total amount of memory used by VASP MPI-rank0   297474. kBytes
=======================================================================

   base      :      30000. kBytes
   nonlr-proj:       1293. kBytes
   fftplans  :      94700. kBytes
   grid      :     169030. kBytes
   one-center:         15. kBytes
   wavefun   :       2436. kBytes

     INWAV:  cpu time    0.0000: real time    0.0000
 Broyden mixing: mesh for mixing (old mesh)
   NGX = 33   NGY = 33   NGZ = 33
  (NGX  =140   NGY  =140   NGZ  =140)
  gives a total of  35937 points

 initial charge density was supplied:
 charge density of overlapping atoms calculated
 number of electron       8.0000000 magnetization 
 keeping initial charge density in first step


--------------------------------------------------------------------------------------------------------


 Maximum index for non-local projection operator         4592
 Maximum index for augmentation-charges         3756 (set IRDMAX)


--------------------------------------------------------------------------------------------------------


 First call to EWALD:  gamma=   0.175
 Maximum number of real-space cells 3x 3x 3
 Maximum number of reciprocal cells 3x 3x 3

    FEWALD:  cpu time    0.0007: real time    0.0007


--------------------------------------- Iteration      1(   1)  ---------------------------------------


    POTLOK:  cpu time    1.7963: real time    1.8008
    SETDIJ:  cpu time    0.0065: real time    0.0065
     EDDAV:  cpu time    0.5606: real time    0.5619
       DOS:  cpu time    0.0002: real time    0.0002
    --------------------------------------------
      LOOP:  cpu time    2.3636: real time    2.3694

 eigenvalue-minimisations  :    16
 total energy-change (2. order) : 0.5562788E+02  (-0.1603369E+03)
 number of electron       8.0000000 magnetization 
 augmentation part        8.0000000 magnetization 

 Free energy of the ion-electron system (eV)
  ---------------------------------------------------
  alpha Z        PSCENC =         0.23212460
  Ewald energy   TEWEN  =       126.18699159
  -Hartree energ DENC   =      -243.41917279
  -exchange      EXHF   =         0.00000000
  -V(xc)+E(xc)   XCENC  =        21.90384130
  PAW double counting   =       117.05815612     -117.66307307
  entropy T*S    EENTRO =        -0.00000000
  eigenvalues    EBANDS =       -45.71274002
  atomic energy  EATOM  =       197.04175453
  Solvation  Ediel_sol  =         0.00000000
  ---------------------------------------------------
  free energy    TOTEN  =        55.62788227 eV

  energy without entropy =       55.62788227  energy(sigma->0) =       55.62788227


--------------------------------------------------------------------------------------------------------




--------------------------------------- Iteration      1(   2)  ---------------------------------------


     EDDAV:  cpu time    0.9707: real time    0.9731
       DOS:  cpu time    0.0001: real time    0.0001
    --------------------------------------------
      LOOP:  cpu time    0.9708: real time    0.9732

 eigenvalue-minimisations  :    32
 total energy-change (2. order) :-0.7173299E+02  (-0.7173299E+02)
 number of electron       8.0000000 magnetization 
 augmentation part        8.0000000 magnetization 

 Free energy of the ion-electron system (eV)
  ---------------------------------------------------
  alpha Z        PSCENC =         0.23212460
  Ewald energy   TEWEN  =       126.18699159
  -Hartree energ DENC   =      -243.41917279
  -exchange      EXHF   =         0.00000000
  -V(xc)+E(xc)   XCENC  =        21.90384130
  PAW double counting   =       117.05815612     -117.66307307
  entropy T*S    EENTRO =        -0.00000000
  eigenvalues    EBANDS =      -117.44572570
  atomic energy  EATOM  =       197.04175453
  Solvation  Ediel_sol  =         0.00000000
  ---------------------------------------------------
  free energy    TOTEN  =       -16.10510341 eV

  energy without entropy =      -16.10510341  energy(sigma->0) =      -16.10510341


--------------------------------------------------------------------------------------------------------




--------------------------------------- Iteration      1(   3)  ---------------------------------------


     EDDAV:  cpu time    0.5295: real time    0.5309
       DOS:  cpu time    0.0001: real time    0.0001
    --------------------------------------------
      LOOP:  cpu time    0.5297: real time    0.5310

 eigenvalue-minimisations  :    16
 total energy-change (2. order) :-0.1065161E+02  (-0.1065161E+02)
 number of electron       8.0000000 magnetization 
 augmentation part        8.0000000 magnetization 

 Free energy of the ion-electron system (eV)
  ---------------------------------------------------
  alpha Z        PSCENC =         0.23212460
  Ewald energy   TEWEN  =       126.18699159
  -Hartree energ DENC   =      -243.41917279
  -exchange      EXHF   =         0.00000000
  -V(xc)+E(xc)   XCENC  =        21.90384130
  PAW double counting   =       117.05815612     -117.66307307
  entropy T*S    EENTRO =        -0.00000000
  eigenvalues    EBANDS =      -128.09733538
  atomic energy  EATOM  =       197.04175453
  Solvation  Ediel_sol  =         0.00000000
  ---------------------------------------------------
  free energy    TOTEN  =       -26.75671309 eV

  energy without entropy =      -26.75671309  energy(sigma->0) =      -26.75671309


--------------------------------------------------------------------------------------------------------




--------------------------------------- Iteration      1(   4)  ---------------------------------------


     EDDAV:  cpu time    0.9561: real time    0.9584
       DOS:  cpu time    0.0001: real time    0.0001
    --------------------------------------------
      LOOP:  cpu time    0.9562: real time    0.9585

 eigenvalue-minimisations  :    32
 total energy-change (2. order) :-0.4532271E+00  (-0.4532271E+00)
 number of electron       8.0000000 magnetization 
 augmentation part        8.0000000 magnetization 

 Free energy of the ion-electron system (eV)
  ---------------------------------------------------
  alpha Z        PSCENC =         0.23212460
  Ewald energy   TEWEN  =       126.18699159
  -Hartree energ DENC   =      -243.41917279
  -exchange      EXHF   =         0.00000000
  -V(xc)+E(xc)   XCENC  =        21.90384130
  PAW double counting   =       117.05815612     -117.66307307
  entropy T*S    EENTRO =        -0.00000000
  eigenvalues    EBANDS =      -128.55056244
  atomic energy  EATOM  =       197.04175453
  Solvation  Ediel_sol  =         0.00000000
  ---------------------------------------------------
  free energy    TOTEN  =       -27.20994015 eV

  energy without entropy =      -27.20994015  energy(sigma->0) =      -27.20994015


--------------------------------------------------------------------------------------------------------




--------------------------------------- Iteration      1(   5)  ---------------------------------------


     EDDAV:  cpu time    0.7535: real time    0.7553
       DOS:  cpu time    0.0001: real time    0.0001
    CHARGE:  cpu time    0.1059: real time    0.1062
    MIXING:  cpu time    0.0365: real time    0.0365
    --------------------------------------------
      LOOP:  cpu time    0.8960: real time    0.8982

 eigenvalue-minimisations  :    24
 total energy-change (2. order) :-0.1607610E-03  (-0.1607610E-03)
 number of electron       7.9999997 magnetization 
 augmentation part        0.2185671 magnetization 

 Broyden mixing:
  rms(total) = 0.83906E+00    rms(broyden)= 0.83886E+00
  rms(prec ) = 0.11845E+01
  weight for this iteration     100.00

 Free energy of the ion-electron system (eV)
  ---------------------------------------------------
  alpha Z        PSCENC =         0.23212460
  Ewald energy   TEWEN  =       126.18699159
  -Hartree energ DENC   =      -243.41917279
  -exchange      EXHF   =         0.00000000
  -V(xc)+E(xc)   XCENC  =        21.90384130
  PAW double counting   =       117.05815612     -117.66307307
  entropy T*S    EENTRO =        -0.00000000
  eigenvalues    EBANDS =      -128.55072320
  atomic energy  EATOM  =       197.04175453
  Solvation  Ediel_sol  =         0.00000000
  ---------------------------------------------------
  free energy    TOTEN  =       -27.21010091 eV

  energy without entropy =      -27.21010091  energy(sigma->0) =      -27.21010091


--------------------------------------------------------------------------------------------------------




--------------------------------------- Iteration      1(   6)  ---------------------------------------


    POTLOK:  cpu time    1.8110: real time    1.8153
    SETDIJ:  cpu time    0.0065: real time    0.0065
     EDDAV:  cpu time    0.7341: real time    0.7359
       DOS:  cpu time    0.0001: real time    0.0001
    CHARGE:  cpu time    0.0985: real time    0.0987
    MIXING:  cpu time    0.0368: real time    0.0369
    --------------------------------------------
      LOOP:  cpu time    2.6870: real time    2.6935

 eigenvalue-minimisations  :    24
 total energy-change (2. order) : 0.2674831E+01  (-0.8452607E+00)
 number of electron       7.9999997 magnetization 
 augmentation part        0.1913926 magnetization 

 Broyden mixing:
  rms(total) = 0.43051E+00    rms(broyden)= 0.43040E+00
  rms(prec ) = 0.53758E+00
  weight for this iteration     100.00

 eigenvalues of (default mixing * dielectric matrix)
  average eigenvalue GAMMA=   1.1873
  1.1873

 Free energy of the ion-electron system (eV)
  ---------------------------------------------------
  alpha Z        PSCENC =         0.23212460
  Ewald energy   TEWEN  =       126.18699159
  -Hartree energ DENC   =      -262.41207667
  -exchange      EXHF   =         0.00000000
  -V(xc)+E(xc)   XCENC  =        23.05640465
  PAW double counting   =       232.45551281     -233.22550324
  entropy T*S    EENTRO =        -0.00000000
  eigenvalues    EBANDS =      -107.87047791
  atomic energy  EATOM  =       197.04175453
  Solvation  Ediel_sol  =         0.00000000
  ---------------------------------------------------
  free energy    TOTEN  =       -24.53526963 eV

  energy without entropy =      -24.53526963  energy(sigma->0) =      -24.53526963


--------------------------------------------------------------------------------------------------------




--------------------------------------- Iteration      1(   7)  ---------------------------------------


    POTLOK:  cpu time    1.8014: real time    1.8057
    SETDIJ:  cpu time    0.0065: real time    0.0065
     EDDAV:  cpu time    0.9477: real time    0.9499
       DOS:  cpu time    0.0001: real time    0.0001
    CHARGE:  cpu time    0.1016: real time    0.1018
    MIXING:  cpu time    0.0379: real time    0.0379
    --------------------------------------------
      LOOP:  cpu time    2.8950: real time    2.9020

 eigenvalue-minimisations  :    32
 total energy-change (2. order) : 0.4404577E+00  (-0.6250414E-01)
 number of electron       7.9999997 magnetization 
 augmentation part        0.1835839 magnetization 

 Broyden mixing:
  rms(total) = 0.22193E+00    rms(broyden)= 0.22189E+00
  rms(prec ) = 0.27347E+00
  weight for this iteration     100.00

 eigenvalues of (default mixing * dielectric matrix)
  average eigenvalue GAMMA=   1.6961
  1.2366  2.1556

 Free energy of the ion-electron system (eV)
  ---------------------------------------------------
  alpha Z        PSCENC =         0.23212460
  Ewald energy   TEWEN  =       126.18699159
  -Hartree energ DENC   =      -271.80742231
  -exchange      EXHF   =         0.00000000
  -V(xc)+E(xc)   XCENC  =        23.77096389
  PAW double counting   =       349.16480009     -349.95811245
  entropy T*S    EENTRO =        -0.00000000
  eigenvalues    EBANDS =       -98.72591192
  atomic energy  EATOM  =       197.04175453
  Solvation  Ediel_sol  =         0.00000000
  ---------------------------------------------------
  free energy    TOTEN  =       -24.09481197 eV

  energy without entropy =      -24.09481197  energy(sigma->0) =      -24.09481197


--------------------------------------------------------------------------------------------------------




--------------------------------------- Iteration      1(   8)  ---------------------------------------


    POTLOK:  cpu time    1.7996: real time    1.8040
    SETDIJ:  cpu time    0.0064: real time    0.0064
     EDDAV:  cpu time    0.9339: real time    0.9362
       DOS:  cpu time    0.0001: real time    0.0001
    CHARGE:  cpu time    0.0998: real time    0.1001
    MIXING:  cpu time    0.0364: real time    0.0365
    --------------------------------------------
      LOOP:  cpu time    2.8762: real time    2.8832

 eigenvalue-minimisations  :    32
 total energy-change (2. order) : 0.1603868E+00  (-0.1801095E-01)
 number of electron       7.9999997 magnetization 
 augmentation part        0.1811602 magnetization 

 Broyden mixing:
  rms(total) = 0.26708E-01    rms(broyden)= 0.26681E-01
  rms(prec ) = 0.54033E-01
  weight for this iteration     100.00

 eigenvalues of (default mixing * dielectric matrix)
  average eigenvalue GAMMA=   1.5355
  2.1577  1.1055  1.3431

 Free energy of the ion-electron system (eV)
  ---------------------------------------------------
  alpha Z        PSCENC =         0.23212460
  Ewald energy   TEWEN  =       126.18699159
  -Hartree energ DENC   =      -278.72077500
  -exchange      EXHF   =         0.00000000
  -V(xc)+E(xc)   XCENC  =        24.39105905
  PAW double counting   =       454.27481691     -455.05308402
  entropy T*S    EENTRO =        -0.00000000
  eigenvalues    EBANDS =       -92.28731286
  atomic energy  EATOM  =       197.04175453
  Solvation  Ediel_sol  =         0.00000000
  ---------------------------------------------------
  free energy    TOTEN  =       -23.93442519 eV

  energy without entropy =      -23.93442519  energy(sigma->0) =      -23.93442519


--------------------------------------------------------------------------------------------------------




--------------------------------------- Iteration      1(   9)  ---------------------------------------


    POTLOK:  cpu time    1.8000: real time    1.8044
    SETDIJ:  cpu time    0.0066: real time    0.0066
     EDDAV:  cpu time    0.5254: real time    0.5266
       DOS:  cpu time    0.0001: real time    0.0001
    CHARGE:  cpu time    0.0992: real time    0.0994
    MIXING:  cpu time    0.0388: real time    0.0390
    --------------------------------------------
      LOOP:  cpu time    2.4702: real time    2.4762

 eigenvalue-minimisations  :    16
 total energy-change (2. order) : 0.6174863E-02  (-0.3324849E-03)
 number of electron       7.9999997 magnetization 
 augmentation part        0.1806509 magnetization 

 Broyden mixing:
  rms(total) = 0.16298E-01    rms(broyden)= 0.16295E-01
  rms(prec ) = 0.36700E-01
  weight for this iteration     100.00

 eigenvalues of (default mixing * dielectric matrix)
  average eigenvalue GAMMA=   1.8936
  2.9267  2.4729  1.0024  1.1723

 Free energy of the ion-electron system (eV)
  ---------------------------------------------------
  alpha Z        PSCENC =         0.23212460
  Ewald energy   TEWEN  =       126.18699159
  -Hartree energ DENC   =      -279.93867189
  -exchange      EXHF   =         0.00000000
  -V(xc)+E(xc)   XCENC  =        24.45385531
  PAW double counting   =       450.83564008     -451.61251055
  entropy T*S    EENTRO =        -0.00000000
  eigenvalues    EBANDS =       -91.12743401
  atomic energy  EATOM  =       197.04175453
  Solvation  Ediel_sol  =         0.00000000
  ---------------------------------------------------
  free energy    TOTEN  =       -23.92825033 eV

  energy without entropy =      -23.92825033  energy(sigma->0) =      -23.92825033


--------------------------------------------------------------------------------------------------------




--------------------------------------- Iteration      1(  10)  ---------------------------------------


    POTLOK:  cpu time    1.7305: real time    1.7347
    SETDIJ:  cpu time    0.0065: real time    0.0065
     EDDAV:  cpu time    0.5257: real time    0.5269
       DOS:  cpu time    0.0001: real time    0.0001
    CHARGE:  cpu time    0.1026: real time    0.1029
    MIXING:  cpu time    0.0402: real time    0.0402
    --------------------------------------------
      LOOP:  cpu time    2.4056: real time    2.4114

 eigenvalue-minimisations  :    16
 total energy-change (2. order) : 0.9206776E-02  (-0.5745463E-03)
 number of electron       7.9999997 magnetization 
 augmentation part        0.1804145 magnetization 

 Broyden mixing:
  rms(total) = 0.70671E-02    rms(broyden)= 0.70660E-02
  rms(prec ) = 0.16303E-01
  weight for this iteration     100.00

 eigenvalues of (default mixing * dielectric matrix)
  average eigenvalue GAMMA=   2.0161
  3.2339  1.0158  1.1780  2.3263  2.3263

 Free energy of the ion-electron system (eV)
  ---------------------------------------------------
  alpha Z        PSCENC =         0.23212460
  Ewald energy   TEWEN  =       126.18699159
  -Hartree energ DENC   =      -281.60631821
  -exchange      EXHF   =         0.00000000
  -V(xc)+E(xc)   XCENC  =        24.52923919
  PAW double counting   =       441.82337205     -442.59611472
  entropy T*S    EENTRO =        -0.00000000
  eigenvalues    EBANDS =       -89.53009257
  atomic energy  EATOM  =       197.04175453
  Solvation  Ediel_sol  =         0.00000000
  ---------------------------------------------------
  free energy    TOTEN  =       -23.91904355 eV

  energy without entropy =      -23.91904355  energy(sigma->0) =      -23.91904355


--------------------------------------------------------------------------------------------------------




--------------------------------------- Iteration      1(  11)  ---------------------------------------


    POTLOK:  cpu time    1.6228: real time    1.6267
    SETDIJ:  cpu time    0.0065: real time    0.0065
     EDDAV:  cpu time    0.5583: real time    0.5596
       DOS:  cpu time    0.0001: real time    0.0001
    CHARGE:  cpu time    0.0993: real time    0.0996
    MIXING:  cpu time    0.0400: real time    0.0401
    --------------------------------------------
      LOOP:  cpu time    2.3270: real time    2.3326

 eigenvalue-minimisations  :    16
 total energy-change (2. order) :-0.8124947E-02  (-0.3885987E-03)
 number of electron       7.9999997 magnetization 
 augmentation part        0.1800376 magnetization 

 Broyden mixing:
  rms(total) = 0.89170E-02    rms(broyden)= 0.89163E-02
  rms(prec ) = 0.12549E-01
  weight for this iteration     100.00

 eigenvalues of (default mixing * dielectric matrix)
  average eigenvalue GAMMA=   2.1462
  4.5888  2.8601  2.2884  1.1914  0.9741  0.9741

 Free energy of the ion-electron system (eV)
  ---------------------------------------------------
  alpha Z        PSCENC =         0.23212460
  Ewald energy   TEWEN  =       126.18699159
  -Hartree energ DENC   =      -282.65379790
  -exchange      EXHF   =         0.00000000
  -V(xc)+E(xc)   XCENC  =        24.57563530
  PAW double counting   =       446.86120843     -447.63485781
  entropy T*S    EENTRO =        -0.00000000
  eigenvalues    EBANDS =       -88.53622725
  atomic energy  EATOM  =       197.04175453
  Solvation  Ediel_sol  =         0.00000000
  ---------------------------------------------------
  free energy    TOTEN  =       -23.92716850 eV

  energy without entropy =      -23.92716850  energy(sigma->0) =      -23.92716850


--------------------------------------------------------------------------------------------------------




--------------------------------------- Iteration      1(  12)  ---------------------------------------


    POTLOK:  cpu time    1.5872: real time    1.5909
    SETDIJ:  cpu time    0.0065: real time    0.0065
     EDDAV:  cpu time    0.9879: real time    0.9903
       DOS:  cpu time    0.0001: real time    0.0001
    CHARGE:  cpu time    0.1000: real time    0.1002
    MIXING:  cpu time    0.0407: real time    0.0408
    --------------------------------------------
      LOOP:  cpu time    2.7224: real time    2.7289

 eigenvalue-minimisations  :    32
 total energy-change (2. order) :-0.2604909E-02  (-0.5970448E-04)
 number of electron       7.9999997 magnetization 
 augmentation part        0.1801410 magnetization 

 Broyden mixing:
  rms(total) = 0.22348E-02    rms(broyden)= 0.22346E-02
  rms(prec ) = 0.50346E-02
  weight for this iteration     100.00

 eigenvalues of (default mixing * dielectric matrix)
  average eigenvalue GAMMA=   2.2922
  4.9157  2.8679  2.8679  2.1503  1.1898  1.0268  1.0268

 Free energy of the ion-electron system (eV)
  ---------------------------------------------------
  alpha Z        PSCENC =         0.23212460
  Ewald energy   TEWEN  =       126.18699159
  -Hartree energ DENC   =      -282.35017013
  -exchange      EXHF   =         0.00000000
  -V(xc)+E(xc)   XCENC  =        24.54477701
  PAW double counting   =       442.42536347     -443.19888659
  entropy T*S    EENTRO =        -0.00000000
  eigenvalues    EBANDS =       -88.81172790
  atomic energy  EATOM  =       197.04175453
  Solvation  Ediel_sol  =         0.00000000
  ---------------------------------------------------
  free energy    TOTEN  =       -23.92977341 eV

  energy without entropy =      -23.92977341  energy(sigma->0) =      -23.92977341


--------------------------------------------------------------------------------------------------------




--------------------------------------- Iteration      1(  13)  ---------------------------------------


    POTLOK:  cpu time    1.6138: real time    1.6177
    SETDIJ:  cpu time    0.0067: real time    0.0067
     EDDAV:  cpu time    0.5620: real time    0.5633
       DOS:  cpu time    0.0001: real time    0.0001
    CHARGE:  cpu time    0.0997: real time    0.1000
    MIXING:  cpu time    0.0417: real time    0.0418
    --------------------------------------------
      LOOP:  cpu time    2.3239: real time    2.3294

 eigenvalue-minimisations  :    16
 total energy-change (2. order) :-0.4278652E-02  (-0.1038805E-03)
 number of electron       7.9999997 magnetization 
 augmentation part        0.1801872 magnetization 

 Broyden mixing:
  rms(total) = 0.19023E-02    rms(broyden)= 0.19021E-02
  rms(prec ) = 0.28524E-02
  weight for this iteration     100.00

 eigenvalues of (default mixing * dielectric matrix)
  average eigenvalue GAMMA=   2.3467
  5.9438  3.7572  2.5233  2.2543  1.2329  0.9770  1.0425  1.0425

 Free energy of the ion-electron system (eV)
  ---------------------------------------------------
  alpha Z        PSCENC =         0.23212460
  Ewald energy   TEWEN  =       126.18699159
  -Hartree energ DENC   =      -282.31841312
  -exchange      EXHF   =         0.00000000
  -V(xc)+E(xc)   XCENC  =        24.53719010
  PAW double counting   =       442.91326963     -443.68567068
  entropy T*S    EENTRO =        -0.00000000
  eigenvalues    EBANDS =       -88.84129871
  atomic energy  EATOM  =       197.04175453
  Solvation  Ediel_sol  =         0.00000000
  ---------------------------------------------------
  free energy    TOTEN  =       -23.93405206 eV

  energy without entropy =      -23.93405206  energy(sigma->0) =      -23.93405206


--------------------------------------------------------------------------------------------------------




--------------------------------------- Iteration      1(  14)  ---------------------------------------


    POTLOK:  cpu time    1.5913: real time    1.5951
    SETDIJ:  cpu time    0.0065: real time    0.0065
     EDDAV:  cpu time    0.9293: real time    0.9315
       DOS:  cpu time    0.0001: real time    0.0001
    CHARGE:  cpu time    0.0991: real time    0.0993
    MIXING:  cpu time    0.0425: real time    0.0426
    --------------------------------------------
      LOOP:  cpu time    2.6688: real time    2.6751

 eigenvalue-minimisations  :    32
 total energy-change (2. order) :-0.4764181E-03  (-0.7334188E-05)
 number of electron       7.9999997 magnetization 
 augmentation part        0.1801421 magnetization 

 Broyden mixing:
  rms(total) = 0.62382E-03    rms(broyden)= 0.62363E-03
  rms(prec ) = 0.13697E-02
  weight for this iteration     100.00

 eigenvalues of (default mixing * dielectric matrix)
  average eigenvalue GAMMA=   2.5411
  7.0209  4.3427  2.9611  2.3916  1.7067  1.3161  1.0492  1.0492  1.0330

 Free energy of the ion-electron system (eV)
  ---------------------------------------------------
  alpha Z        PSCENC =         0.23212460
  Ewald energy   TEWEN  =       126.18699159
  -Hartree energ DENC   =      -282.31322765
  -exchange      EXHF   =         0.00000000
  -V(xc)+E(xc)   XCENC  =        24.53434518
  PAW double counting   =       442.54150138     -443.31448611
  entropy T*S    EENTRO =        -0.00000000
  eigenvalues    EBANDS =       -88.84353200
  atomic energy  EATOM  =       197.04175453
  Solvation  Ediel_sol  =         0.00000000
  ---------------------------------------------------
  free energy    TOTEN  =       -23.93452848 eV

  energy without entropy =      -23.93452848  energy(sigma->0) =      -23.93452848


--------------------------------------------------------------------------------------------------------




--------------------------------------- Iteration      1(  15)  ---------------------------------------


    POTLOK:  cpu time    1.5428: real time    1.5466
    SETDIJ:  cpu time    0.0066: real time    0.0066
     EDDAV:  cpu time    0.5166: real time    0.5178
       DOS:  cpu time    0.0001: real time    0.0001
    CHARGE:  cpu time    0.0971: real time    0.0974
    MIXING:  cpu time    0.0435: real time    0.0436
    --------------------------------------------
      LOOP:  cpu time    2.2067: real time    2.2121

 eigenvalue-minimisations  :    16
 total energy-change (2. order) :-0.4800123E-03  (-0.3782059E-05)
 number of electron       7.9999997 magnetization 
 augmentation part        0.1801461 magnetization 

 Broyden mixing:
  rms(total) = 0.66394E-03    rms(broyden)= 0.66393E-03
  rms(prec ) = 0.84048E-03
  weight for this iteration     100.00

 eigenvalues of (default mixing * dielectric matrix)
  average eigenvalue GAMMA=   2.4642
  7.2432  4.5300  2.7673  2.4682  2.2150  1.2446  1.0885  1.0224  1.0313  1.0313

 Free energy of the ion-electron system (eV)
  ---------------------------------------------------
  alpha Z        PSCENC =         0.23212460
  Ewald energy   TEWEN  =       126.18699159
  -Hartree energ DENC   =      -282.31851296
  -exchange      EXHF   =         0.00000000
  -V(xc)+E(xc)   XCENC  =        24.53395892
  PAW double counting   =       442.13813842     -442.91112094
  entropy T*S    EENTRO =        -0.00000000
  eigenvalues    EBANDS =       -88.83834265
  atomic energy  EATOM  =       197.04175453
  Solvation  Ediel_sol  =         0.00000000
  ---------------------------------------------------
  free energy    TOTEN  =       -23.93500849 eV

  energy without entropy =      -23.93500849  energy(sigma->0) =      -23.93500849


--------------------------------------------------------------------------------------------------------




--------------------------------------- Iteration      1(  16)  ---------------------------------------


    POTLOK:  cpu time    1.5488: real time    1.5525
    SETDIJ:  cpu time    0.0064: real time    0.0064
     EDDAV:  cpu time    0.5056: real time    0.5068
       DOS:  cpu time    0.0001: real time    0.0001
    CHARGE:  cpu time    0.0947: real time    0.0949
    MIXING:  cpu time    0.0445: real time    0.0446
    --------------------------------------------
      LOOP:  cpu time    2.2001: real time    2.2053

 eigenvalue-minimisations  :    16
 total energy-change (2. order) :-0.6621080E-04  (-0.2428741E-06)
 number of electron       7.9999997 magnetization 
 augmentation part        0.1801382 magnetization 

 Broyden mixing:
  rms(total) = 0.16446E-03    rms(broyden)= 0.16443E-03
  rms(prec ) = 0.30428E-03
  weight for this iteration     100.00

 eigenvalues of (default mixing * dielectric matrix)
  average eigenvalue GAMMA=   2.7010
  8.3473  4.9390  3.9804  2.7282  2.4052  1.9324  1.2908  1.0981  1.0015  1.0015
  0.9868

 Free energy of the ion-electron system (eV)
  ---------------------------------------------------
  alpha Z        PSCENC =         0.23212460
  Ewald energy   TEWEN  =       126.18699159
  -Hartree energ DENC   =      -282.33490280
  -exchange      EXHF   =         0.00000000
  -V(xc)+E(xc)   XCENC  =        24.53518326
  PAW double counting   =       442.44082590     -443.21389627
  entropy T*S    EENTRO =        -0.00000000
  eigenvalues    EBANDS =       -88.82315551
  atomic energy  EATOM  =       197.04175453
  Solvation  Ediel_sol  =         0.00000000
  ---------------------------------------------------
  free energy    TOTEN  =       -23.93507470 eV

  energy without entropy =      -23.93507470  energy(sigma->0) =      -23.93507470


--------------------------------------------------------------------------------------------------------




--------------------------------------- Iteration      1(  17)  ---------------------------------------


    POTLOK:  cpu time    1.6094: real time    1.6132
    SETDIJ:  cpu time    0.0062: real time    0.0062
     EDDAV:  cpu time    0.4981: real time    0.4993
       DOS:  cpu time    0.0001: real time    0.0001
    CHARGE:  cpu time    0.0972: real time    0.0975
    MIXING:  cpu time    0.0444: real time    0.0445
    --------------------------------------------
      LOOP:  cpu time    2.2554: real time    2.2608

 eigenvalue-minimisations  :    16
 total energy-change (2. order) :-0.5706123E-04  (-0.2979157E-06)
 number of electron       7.9999997 magnetization 
 augmentation part        0.1801323 magnetization 

 Broyden mixing:
  rms(total) = 0.11893E-03    rms(broyden)= 0.11891E-03
  rms(prec ) = 0.17633E-03
  weight for this iteration     100.00

 eigenvalues of (default mixing * dielectric matrix)
  average eigenvalue GAMMA=   2.5790
  8.5167  5.2078  3.7134  2.6538  2.3181  1.8143  1.4716  1.2097  0.9871  0.9871
  1.0340  1.0340

 Free energy of the ion-electron system (eV)
  ---------------------------------------------------
  alpha Z        PSCENC =         0.23212460
  Ewald energy   TEWEN  =       126.18699159
  -Hartree energ DENC   =      -282.34710909
  -exchange      EXHF   =         0.00000000
  -V(xc)+E(xc)   XCENC  =        24.53574637
  PAW double counting   =       442.47240048     -443.24548663
  entropy T*S    EENTRO =        -0.00000000
  eigenvalues    EBANDS =       -88.81155362
  atomic energy  EATOM  =       197.04175453
  Solvation  Ediel_sol  =         0.00000000
  ---------------------------------------------------
  free energy    TOTEN  =       -23.93513176 eV

  energy without entropy =      -23.93513176  energy(sigma->0) =      -23.93513176


--------------------------------------------------------------------------------------------------------




--------------------------------------- Iteration      1(  18)  ---------------------------------------


    POTLOK:  cpu time    1.5718: real time    1.5756
    SETDIJ:  cpu time    0.0062: real time    0.0062
     EDDAV:  cpu time    0.8817: real time    0.8838
       DOS:  cpu time    0.0001: real time    0.0001
    CHARGE:  cpu time    0.0911: real time    0.0913
    MIXING:  cpu time    0.0450: real time    0.0451
    --------------------------------------------
      LOOP:  cpu time    2.5958: real time    2.6019

 eigenvalue-minimisations  :    32
 total energy-change (2. order) :-0.2448063E-05  (-0.3163891E-07)
 number of electron       7.9999997 magnetization 
 augmentation part        0.1801373 magnetization 

 Broyden mixing:
  rms(total) = 0.34140E-04    rms(broyden)= 0.34129E-04
  rms(prec ) = 0.61114E-04
  weight for this iteration     100.00

 eigenvalues of (default mixing * dielectric matrix)
  average eigenvalue GAMMA=   2.6425
  8.6801  5.4154  3.8394  3.0430  2.4706  2.1808  2.0907  1.3743  1.2213  1.0380
  1.0380  0.9652  0.9955

 Free energy of the ion-electron system (eV)
  ---------------------------------------------------
  alpha Z        PSCENC =         0.23212460
  Ewald energy   TEWEN  =       126.18699159
  -Hartree energ DENC   =      -282.34082830
  -exchange      EXHF   =         0.00000000
  -V(xc)+E(xc)   XCENC  =        24.53535655
  PAW double counting   =       442.43829270     -443.21134517
  entropy T*S    EENTRO =        -0.00000000
  eigenvalues    EBANDS =       -88.81748071
  atomic energy  EATOM  =       197.04175453
  Solvation  Ediel_sol  =         0.00000000
  ---------------------------------------------------
  free energy    TOTEN  =       -23.93513421 eV

  energy without entropy =      -23.93513421  energy(sigma->0) =      -23.93513421


--------------------------------------------------------------------------------------------------------




--------------------------------------- Iteration      1(  19)  ---------------------------------------


    POTLOK:  cpu time    1.6263: real time    1.6301
    SETDIJ:  cpu time    0.0062: real time    0.0062
     EDDAV:  cpu time    0.4901: real time    0.4913
       DOS:  cpu time    0.0001: real time    0.0001
    CHARGE:  cpu time    0.0903: real time    0.0905
    MIXING:  cpu time    0.0464: real time    0.0465
    --------------------------------------------
      LOOP:  cpu time    2.2594: real time    2.2648

 eigenvalue-minimisations  :    16
 total energy-change (2. order) :-0.5116531E-05  (-0.1907613E-07)
 number of electron       7.9999997 magnetization 
 augmentation part        0.1801385 magnetization 

 Broyden mixing:
  rms(total) = 0.25578E-04    rms(broyden)= 0.25573E-04
  rms(prec ) = 0.39086E-04
  weight for this iteration     100.00

 eigenvalues of (default mixing * dielectric matrix)
  average eigenvalue GAMMA=   2.5532
  8.7219  5.4469  4.1251  3.0421  2.5997  2.2714  1.6283  1.6283  1.2401  1.0462
  1.0462  0.9995  0.9995  0.9493

 Free energy of the ion-electron system (eV)
  ---------------------------------------------------
  alpha Z        PSCENC =         0.23212460
  Ewald energy   TEWEN  =       126.18699159
  -Hartree energ DENC   =      -282.33931275
  -exchange      EXHF   =         0.00000000
  -V(xc)+E(xc)   XCENC  =        24.53522650
  PAW double counting   =       442.43828820     -443.21132094
  entropy T*S    EENTRO =        -0.00000000
  eigenvalues    EBANDS =       -88.81889106
  atomic energy  EATOM  =       197.04175453
  Solvation  Ediel_sol  =         0.00000000
  ---------------------------------------------------
  free energy    TOTEN  =       -23.93513933 eV

  energy without entropy =      -23.93513933  energy(sigma->0) =      -23.93513933


--------------------------------------------------------------------------------------------------------




--------------------------------------- Iteration      1(  20)  ---------------------------------------


    POTLOK:  cpu time    1.6428: real time    1.6466
    SETDIJ:  cpu time    0.0062: real time    0.0063
     EDDAV:  cpu time    0.6729: real time    0.6745
       DOS:  cpu time    0.0001: real time    0.0001
    --------------------------------------------
      LOOP:  cpu time    2.3220: real time    2.3275

 eigenvalue-minimisations  :    24
 total energy-change (2. order) :-0.2841858E-06  (-0.1657636E-08)
 number of electron       7.9999997 magnetization 
 augmentation part        0.1801385 magnetization 

 Free energy of the ion-electron system (eV)
  ---------------------------------------------------
  alpha Z        PSCENC =         0.23212460
  Ewald energy   TEWEN  =       126.18699159
  -Hartree energ DENC   =      -282.34043302
  -exchange      EXHF   =         0.00000000
  -V(xc)+E(xc)   XCENC  =        24.53528468
  PAW double counting   =       442.43970085     -443.21274149
  entropy T*S    EENTRO =        -0.00000000
  eigenvalues    EBANDS =       -88.81782136
  atomic energy  EATOM  =       197.04175453
  Solvation  Ediel_sol  =         0.00000000
  ---------------------------------------------------
  free energy    TOTEN  =       -23.93513961 eV

  energy without entropy =      -23.93513961  energy(sigma->0) =      -23.93513961


--------------------------------------------------------------------------------------------------------




 average (electrostatic) potential at core
  the test charge radii are     0.5201  0.6991
  (the norm of the test charge is              1.0000)
       1 -41.4549       2 -41.7029       3 -41.0598       4 -41.3939       5 -58.0941



 E-fermi :  -8.6472     XC(G=0):  -0.6829     alpha+bet : -0.2019


 k-point     1 :       0.0000    0.0000    0.0000
  band No.  band energies     occupation 
      1     -16.7564      2.00000
      2      -9.6245      2.00000
      3      -9.1057      2.00000
      4      -8.9223      2.00000
      5      -0.5509      0.00000
      6       0.9411      0.00000
      7       0.9577      0.00000
      8       1.0180      0.00000


--------------------------------------------------------------------------------------------------------


 soft charge-density along one line, spin component           1
         0         1         2         3         4         5         6         7         8         9
 total charge-density along one line

 pseudopotential strength for first ion, spin component:           1
 -2.341  -4.033  -0.001   0.000  -0.001
 -4.033  -6.864  -0.004   0.001  -0.003
 -0.001  -0.004  -0.336  -0.001   0.002
  0.000   0.001  -0.001  -0.339  -0.001
 -0.001  -0.003   0.002  -0.001  -0.338
 total augmentation occupancy for first ion, spin component:           1
  3.512  -0.633   0.332  -0.088   0.243
 -0.633   0.129  -0.062   0.015  -0.045
  0.332  -0.062   0.035  -0.007   0.019
 -0.088   0.015  -0.007   0.010  -0.005
  0.243  -0.045   0.019  -0.005   0.023


------------------------ aborting loop because EDIFF is reached ----------------------------------------


    CHARGE:  cpu time    0.0894: real time    0.0896
    FORLOC:  cpu time    0.1113: real time    0.1116
    FORNL :  cpu time    0.1603: real time    0.1607
    STRESS:  cpu time    0.5930: real time    0.5944
    FORCOR:  cpu time    1.6580: real time    1.6619
    FORHAR:  cpu time    0.5543: real time    0.5556
    MIXING:  cpu time    0.0489: real time    0.0490
    OFIELD:  cpu time    0.0000: real time    0.0000

  FORCE on cell =-STRESS in cart. coord.  units (eV):
  Direction    XX          YY          ZZ          XY          YZ          ZX
  --------------------------------------------------------------------------------------
  Alpha Z     0.23212     0.23212     0.23212
  Ewald      39.93433    39.29479    46.95783    -0.73710    -2.79873    -5.57114
  Hartree    93.11550    93.48689    95.73822    -0.62372    -0.69078    -0.78098
  E(xc)     -26.97697   -27.00799   -26.97815    -0.00728    -0.01514    -0.01810
  Local    -192.57777  -192.20813  -200.63691     1.44913     2.96208     4.90050
  n-local   -15.35363   -15.49111   -15.44959    -0.03484    -0.00726     0.07367
  augment     0.12994     0.12771     0.11635    -0.00127     0.00375     0.01129
  Kinetic    99.35497   100.94259    99.22082     0.36193     0.74360     0.88491
  Fock        0.00000     0.00000     0.00000     0.00000     0.00000     0.00000
  -------------------------------------------------------------------------------------
  Total      -2.14153    -0.62312    -0.79931     0.40684     0.19752    -0.49984
  in kB      -3.28768    -0.95662    -1.22711     0.62459     0.30323    -0.76736
  external pressure =       -1.82 kB  Pullay stress =        0.00 kB


 VOLUME and BASIS-vectors are now :
 -----------------------------------------------------------------------------
  energy-cutoff  :      400.00
  volume of cell :     1043.62
      direct lattice vectors                 reciprocal lattice vectors
    10.283040100  0.000000000  0.000000000     0.097247506  0.001455494 -0.000446198
    -0.151212700 10.103137000  0.000000000     0.000000000  0.098979159 -0.000441363
     0.045420500  0.044793900 10.045377700     0.000000000 -0.000000000  0.099548273

  length of vectors
    10.283040100 10.104268530 10.045580255     0.097259421  0.098980143  0.099548273


 FORCES acting on ions
    electron-ion (+dipol)            ewald-force                    non-local-force                 convergence-correction
 -----------------------------------------------------------------------------------------------
   0.302E+02 0.414E+02 -.102E+02   -.331E+02 -.455E+02 0.109E+02   0.311E+01 0.422E+01 -.118E+01   -.146E-04 -.301E-05 -.149E-04
   -.116E+02 -.639E+01 0.513E+02   0.128E+02 0.705E+01 -.572E+02   -.131E+01 -.709E+00 0.554E+01   -.457E-05 -.206E-05 0.440E-05
   -.422E+02 0.652E+01 -.255E+02   0.447E+02 -.680E+01 0.269E+02   -.389E+01 0.635E+00 -.240E+01   0.166E-04 0.151E-05 -.905E-05
   0.256E+02 -.407E+02 -.192E+02   -.278E+02 0.446E+02 0.209E+02   0.264E+01 -.408E+01 -.203E+01   -.116E-04 0.457E-05 -.115E-04
   -.293E+01 -.656E+00 0.211E+01   0.340E+01 0.654E+00 -.165E+01   0.388E+00 -.159E+00 0.154E+01   -.189E-04 -.160E-06 -.530E-04
 -----------------------------------------------------------------------------------------------
   -.943E+00 0.869E-01 -.147E+01   0.355E-14 0.000E+00 0.000E+00   0.943E+00 -.870E-01 0.148E+01   -.331E-04 0.858E-06 -.840E-04


 POSITION                                       TOTAL-FORCE (eV/Angst)
 -----------------------------------------------------------------------------------
      4.47697      3.88100      4.67940         0.205919      0.041055     -0.442124
      5.35382      4.88593      3.40639        -0.104455     -0.049594     -0.329806
      6.09847      4.60199      5.05784        -1.410796      0.354033     -0.904712
      4.56467      5.62729      4.87685         0.446179     -0.183918     -0.327603
      5.11536      4.75553      4.45608         0.863152     -0.161576      2.004245
 -----------------------------------------------------------------------------------
    total drift:                               -0.000186     -0.000062      0.000320


--------------------------------------------------------------------------------------------------------



  FREE ENERGIE OF THE ION-ELECTRON SYSTEM (eV)
  ---------------------------------------------------
  free  energy   TOTEN  =       -23.93513961 eV

  energy  without entropy=      -23.93513961  energy(sigma->0) =      -23.93513961



--------------------------------------------------------------------------------------------------------


    POTLOK:  cpu time    1.6341: real time    1.6380


--------------------------------------------------------------------------------------------------------


     LOOP+:  cpu time   47.7927: real time   47.9114
    4ORBIT:  cpu time    0.0000: real time    0.0000

 total amount of memory used by VASP MPI-rank0   297474. kBytes
=======================================================================

   base      :      30000. kBytes
   nonlr-proj:       1293. kBytes
   fftplans  :      94700. kBytes
   grid      :     169030. kBytes
   one-center:         15. kBytes
   wavefun   :       2436. kBytes

  
  
 General timing and accounting informations for this job:
 ========================================================
  
                  Total CPU time used (sec):       49.683
                            User time (sec):       48.242
                          System time (sec):        1.442
                         Elapsed time (sec):       49.813
  
                   Maximum memory used (kb):      422752.
                   Average memory used (kb):           0.
  
                          Minor page faults:       204125
                          Major page faults:            0
                 Voluntary context switches:          146
