 vasp.5.4.4.18Apr17-6-g9f103f2a35 (build Jul 12 2018 13:43:46) complex           
 executed on             LinuxGNU date 2019.06.25  21:09:27
 running on    1 total cores
 distrk:  each k-point on    1 cores,    1 groups
 distr:  one band on NCORES_PER_BAND=   1 cores,    1 groups


--------------------------------------------------------------------------------------------------------


 INCAR:
 POTCAR:    PAW_PBE H 15Jun2001                   
 POTCAR:    PAW_PBE C 08Apr2002                   
 POTCAR:    PAW_PBE H 15Jun2001                   
   VRHFIN =H: ultrasoft test                                                    
   LEXCH  = PE                                                                  
   EATOM  =    12.4884 eV,    0.9179 Ry                                         
                                                                                
   TITEL  = PAW_PBE H 15Jun2001                                                 
   LULTRA =        F    use ultrasoft PP ?                                      
   IUNSCR =        0    unscreen: 0-lin 1-nonlin 2-no                           
   RPACOR =    0.000    partial core radius                                     
   POMASS =    1.000; ZVAL   =    1.000    mass and valenz                      
   RCORE  =    1.100    outmost cutoff radius                                   
   RWIGS  =    0.700; RWIGS  =    0.370    wigner-seitz radius (au A)           
   ENMAX  =  250.000; ENMIN  =  200.000 eV                                      
   RCLOC  =    0.701    cutoff for local pot                                    
   LCOR   =        T    correct aug charges                                     
   LPAW   =        T    paw PP                                                  
   EAUG   =  400.000                                                            
   RMAX   =    1.123    core radius for proj-oper                               
   RAUG   =    1.200    factor for augmentation sphere                          
   RDEP   =    1.112    radius for radial grids                                 
   RDEPT  =    0.926    core radius for aug-charge                              
                                                                                
   Atomic configuration                                                         
    2 entries                                                                   
     n  l   j            E        occ.                                          
     1  0  0.50        -6.4927   1.0000                                         
     2  1  0.50        -3.4015   0.0000                                         
   Description                                                                  
     l       E           TYP  RCUT    TYP  RCUT                                 
     0     -6.4927494     23  1.100                                             
     0      6.8029130     23  1.100                                             
     1     -4.0817478     23  1.100                                             
  local pseudopotential read in
  atomic valenz-charges read in
  non local Contribution for L=           0  read in
    real space projection operators read in
  non local Contribution for L=           0  read in
    real space projection operators read in
  non local Contribution for L=           1  read in
    real space projection operators read in
    PAW grid and wavefunctions read in

   number of l-projection  operators is LMAX  =           3
   number of lm-projection operators is LMMAX =           5

 POTCAR:    PAW_PBE C 08Apr2002                   
   VRHFIN =C: s2p2                                                              
   LEXCH  = PE                                                                  
   EATOM  =   147.1560 eV,   10.8157 Ry                                         
                                                                                
   TITEL  = PAW_PBE C 08Apr2002                                                 
   LULTRA =        F    use ultrasoft PP ?                                      
   IUNSCR =        1    unscreen: 0-lin 1-nonlin 2-no                           
   RPACOR =    1.200    partial core radius                                     
   POMASS =   12.011; ZVAL   =    4.000    mass and valenz                      
   RCORE  =    1.500    outmost cutoff radius                                   
   RWIGS  =    1.630; RWIGS  =    0.863    wigner-seitz radius (au A)           
   ENMAX  =  400.000; ENMIN  =  300.000 eV                                      
   ICORE  =        2    local potential                                         
   LCOR   =        T    correct aug charges                                     
   LPAW   =        T    paw PP                                                  
   EAUG   =  644.873                                                            
   DEXC   =    0.000                                                            
   RMAX   =    1.529    core radius for proj-oper                               
   RAUG   =    1.300    factor for augmentation sphere                          
   RDEP   =    1.501    radius for radial grids                                 
   RDEPT  =    1.300    core radius for aug-charge                              
                                                                                
   Atomic configuration                                                         
    4 entries                                                                   
     n  l   j            E        occ.                                          
     1  0  0.50      -273.3789   2.0000                                         
     2  0  0.50       -13.7508   2.0000                                         
     2  1  0.50        -5.2854   2.0000                                         
     3  2  1.50        -5.4423   0.0000                                         
   Description                                                                  
     l       E           TYP  RCUT    TYP  RCUT                                 
     0    -13.7508458     23  1.200                                             
     0     -8.2022199     23  1.200                                             
     1     -5.2854383     23  1.500                                             
     1     34.0145650     23  1.500                                             
     2     -5.4423304      7  1.500                                             
  local pseudopotential read in
  partial core-charges read in
  partial kinetic energy density read in
  atomic valenz-charges read in
  non local Contribution for L=           0  read in
    real space projection operators read in
  non local Contribution for L=           0  read in
    real space projection operators read in
  non local Contribution for L=           1  read in
    real space projection operators read in
  non local Contribution for L=           1  read in
    real space projection operators read in
    PAW grid and wavefunctions read in

   number of l-projection  operators is LMAX  =           4
   number of lm-projection operators is LMMAX =           8


 ----------------------------------------------------------------------------- 
|                                                                             |
|  ADVICE TO THIS USER RUNNING 'VASP/VAMP'   (HEAR YOUR MASTER'S VOICE ...):  |
|                                                                             |
|      You have a (more or less) 'small supercell' and for smaller cells      |
|      it is recommended  to use the reciprocal-space projection scheme!      |
|      The real space optimization is not  efficient for small cells and it   |
|      is also less accurate ...                                              |
|      Therefore set LREAL=.FALSE. in the  INCAR file                         |
|                                                                             |
 ----------------------------------------------------------------------------- 

 Optimization of the real space projectors (new method)

 maximal supplied QI-value         = 34.20
 optimisation between [QCUT,QGAM] = [  9.92, 20.18] = [ 27.55,114.04] Ry 
 Optimized for a Real-space Cutoff    1.34 Angstroem

   l    n(q)    QCUT    max X(q) W(low)/X(q) W(high)/X(q)  e(spline) 
   0      8     9.919    19.460    0.16E-03    0.20E-03    0.36E-06
   0      8     9.919    12.209    0.16E-03    0.20E-03    0.35E-06
   1      8     9.919     4.655    0.19E-03    0.46E-03    0.40E-06
 Optimization of the real space projectors (new method)

 maximal supplied QI-value         = 25.13
 optimisation between [QCUT,QGAM] = [ 10.05, 20.36] = [ 28.30,116.06] Ry 
 Optimized for a Real-space Cutoff    1.51 Angstroem

   l    n(q)    QCUT    max X(q) W(low)/X(q) W(high)/X(q)  e(spline) 
   0      9    10.053   115.676    0.19E-03    0.21E-03    0.38E-06
   0      9    10.053    87.132    0.19E-03    0.21E-03    0.38E-06
   1      9    10.053     4.429    0.87E-04    0.11E-03    0.39E-06
   1      9    10.053     2.733    0.59E-04    0.62E-04    0.43E-06
  PAW_PBE H 15Jun2001                   :
 energy of atom  1       EATOM=  -12.4884
 kinetic energy error for atom=    0.0098 (will be added to EATOM!!)
  PAW_PBE C 08Apr2002                   :
 energy of atom  2       EATOM= -147.1560
 kinetic energy error for atom=    0.0288 (will be added to EATOM!!)


 POSCAR: POSCAR file written by OVITO            
  positions in cartesian coordinates
  No initial velocities read in
 exchange correlation table for  LEXCH =        8
   RHO(1)=    0.500       N(1)  =     2000
   RHO(2)=  100.500       N(2)  =     4000



--------------------------------------------------------------------------------------------------------


 ion  position               nearest neighbor table
   1  0.549  0.374  0.466-   5 1.06
   2  0.516  0.542  0.521-   5 1.07
   3  0.400  0.456  0.423-   5 1.06
   4  0.556  0.507  0.358-   5 1.12
   5  0.501  0.468  0.445-   1 1.06   3 1.06   2 1.07   4 1.12


IMPORTANT INFORMATION: All symmetrisations will be switched off!
NOSYMM: (Re-)initialisation of all symmetry stuff for point group C_1.




Automatic generation of k-mesh.
 generate k-points for:    1    1    1
Space group operators:
 irot       det(A)        alpha          n_x          n_y          n_z        tau_x        tau_y        tau_z
    1     1.000000     0.000000     1.000000     0.000000     0.000000     0.000000     0.000000     0.000000
 
 Subroutine IBZKPT returns following result:
 ===========================================
 
 Found      1 irreducible k-points:
 
 Following reciprocal coordinates:
            Coordinates               Weight
  0.000000  0.000000  0.000000      1.000000
 
 Following cartesian coordinates:
            Coordinates               Weight
  0.000000  0.000000  0.000000      1.000000
 


--------------------------------------------------------------------------------------------------------




 Dimension of arrays:
   k-points           NKPTS =      1   k-points in BZ     NKDIM =      1   number of bands    NBANDS=      8
   number of dos      NEDOS =    301   number of ions     NIONS =      5
   non local maximal  LDIM  =      4   non local SUM 2l+1 LMDIM =      8
   total plane-waves  NPLWV = 313600
   max r-space proj   IRMAX =   4472   max aug-charges    IRDMAX=   3828
   dimension x,y,z NGX =    70 NGY =   64 NGZ =   70
   dimension x,y,z NGXF=   140 NGYF=  128 NGZF=  140
   support grid    NGXF=   140 NGYF=  128 NGZF=  140
   ions per type =               4   1
   NGX,Y,Z   is equivalent  to a cutoff of  11.35, 10.94, 11.38 a.u.
   NGXF,Y,Z  is equivalent  to a cutoff of  22.70, 21.87, 22.76 a.u.

 SYSTEM =  unknown system                          
 POSCAR =  POSCAR file written by OVITO            

 Startparameter for this run:
   NWRITE =      2    write-flag & timer
   PREC   = a         normal or accurate (medium, high low for compatibility)
   ISTART =      0    job   : 0-new  1-cont  2-samecut
   ICHARG =      2    charge: 1-file 2-atom 10-const
   ISPIN  =      1    spin polarized calculation?
   LNONCOLLINEAR =      F non collinear calculations
   LSORBIT =      F    spin-orbit coupling
   INIWAV =      1    electr: 0-lowe 1-rand  2-diag
   LASPH  =      F    aspherical Exc in radial PAW
   METAGGA=      F    non-selfconsistent MetaGGA calc.

 Electronic Relaxation 1
   ENCUT  =  400.0 eV  29.40 Ry    5.42 a.u.  16.72 15.87 16.68*2*pi/ulx,y,z
   ENINI  =  400.0     initial cutoff
   ENAUG  =  644.9 eV  augmentation charge cutoff
   NELM   =    120;   NELMIN=  4; NELMDL= -5     # of ELM steps 
   EDIFF  = 0.1E-05   stopping-criterion for ELM
   LREAL  =      T    real-space projection
   NLSPLINE    = F    spline interpolate recip. space projectors
   LCOMPAT=      F    compatible to vasp.4.4
   GGA_COMPAT  = T    GGA compatible to vasp.4.4-vasp.4.6
   LMAXPAW     = -100 max onsite density
   LMAXMIX     =    2 max onsite mixed and CHGCAR
   VOSKOWN=      0    Vosko Wilk Nusair interpolation
   ROPT   =   -0.00025  -0.00025
 Ionic relaxation
   EDIFFG = 0.1E-04   stopping-criterion for IOM
   NSW    =      0    number of steps for IOM
   NBLOCK =      1;   KBLOCK =      1    inner block; outer block 
   IBRION =     -1    ionic relax: 0-MD 1-quasi-New 2-CG
   NFREE  =      0    steps in history (QN), initial steepest desc. (CG)
   ISIF   =      2    stress and relaxation
   IWAVPR =     10    prediction:  0-non 1-charg 2-wave 3-comb
   ISYM   =      0    0-nonsym 1-usesym 2-fastsym
   LCORR  =      T    Harris-Foulkes like correction to forces

   POTIM  = 0.5000    time-step for ionic-motion
   TEIN   =    0.0    initial temperature
   TEBEG  =    0.0;   TEEND  =   0.0 temperature during run
   SMASS  =  -3.00    Nose mass-parameter (am)
   estimated Nose-frequenzy (Omega)   =  0.10E-29 period in steps =****** mass=  -0.240E-26a.u.
   SCALEE = 1.0000    scale energy and forces
   NPACO  =    256;   APACO  = 16.0  distance and # of slots for P.C.
   PSTRESS=    0.0 pullay stress

  Mass of Ions in am
   POMASS =   1.00 12.01
  Ionic Valenz
   ZVAL   =   1.00  4.00
  Atomic Wigner-Seitz radii
   RWIGS  =  -1.00 -1.00
  virtual crystal weights 
   VCA    =   1.00  1.00
   NELECT =       8.0000    total number of electrons
   NUPDOWN=      -1.0000    fix difference up-down

 DOS related values:
   EMIN   =  10.00;   EMAX   =-10.00  energy-range for DOS
   EFERMI =   0.00
   ISMEAR =     0;   SIGMA  =   0.05  broadening in eV -4-tet -1-fermi 0-gaus

 Electronic relaxation 2 (details)
   IALGO  =     38    algorithm
   LDIAG  =      T    sub-space diagonalisation (order eigenvalues)
   LSUBROT=      F    optimize rotation matrix (better conditioning)
   TURBO    =      0    0=normal 1=particle mesh
   IRESTART =      0    0=no restart 2=restart with 2 vectors
   NREBOOT  =      0    no. of reboots
   NMIN     =      0    reboot dimension
   EREF     =   0.00    reference energy to select bands
   IMIX   =      4    mixing-type and parameters
     AMIX     =   0.40;   BMIX     =  1.00
     AMIX_MAG =   1.60;   BMIX_MAG =  1.00
     AMIN     =   0.10
     WC   =   100.;   INIMIX=   1;  MIXPRE=   1;  MAXMIX= -45

 Intra band minimization:
   WEIMIN = 0.0000     energy-eigenvalue tresh-hold
   EBREAK =  0.31E-07  absolut break condition
   DEPER  =   0.30     relativ break condition  

   TIME   =   0.40     timestep for ELM

  volume/ion in A,a.u.               =     203.94      1376.23
  Fermi-wavevector in a.u.,A,eV,Ry     =   0.325299  0.614727  1.439764  0.105820
  Thomas-Fermi vector in A             =   1.216173

 Write flags
   LWAVE        =      F    write WAVECAR
   LDOWNSAMPLE  =      F    k-point downsampling of WAVECAR
   LCHARG       =      F    write CHGCAR
   LVTOT        =      F    write LOCPOT, total local potential
   LVHAR        =      F    write LOCPOT, Hartree potential only
   LELF         =      F    write electronic localiz. function (ELF)
   LORBIT       =      0    0 simple, 1 ext, 2 COOP (PROOUT), +10 PAW based schemes


 Dipole corrections
   LMONO  =      F    monopole corrections only (constant potential shift)
   LDIPOL =      F    correct potential (dipole corrections)
   IDIPOL =      0    1-x, 2-y, 3-z, 4-all directions 
   EPSILON=  1.0000000 bulk dielectric constant

 Exchange correlation treatment:
   GGA     =    --    GGA type
   LEXCH   =     8    internal setting for exchange type
   VOSKOWN=      0    Vosko Wilk Nusair interpolation
   LHFCALC =     F    Hartree Fock is set to
   LHFONE  =     F    Hartree Fock one center treatment
   AEXX    =    0.0000 exact exchange contribution

 Linear response parameters
   LEPSILON=     F    determine dielectric tensor
   LRPA    =     F    only Hartree local field effects (RPA)
   LNABLA  =     F    use nabla operator in PAW spheres
   LVEL    =     F    velocity operator in full k-point grid
   LINTERFAST=   F  fast interpolation
   KINTER  =     0    interpolate to denser k-point grid
   CSHIFT  =0.1000    complex shift for real part using Kramers Kronig
   OMEGAMAX=  -1.0    maximum frequency
   DEG_THRESHOLD= 0.2000000E-02 threshold for treating states as degnerate
   RTIME   =   -0.100 relaxation time in fs
  (WPLASMAI=    0.000 imaginary part of plasma frequency in eV, 0.658/RTIME)
   DFIELD  = 0.0000000 0.0000000 0.0000000 field for delta impulse in time

 Orbital magnetization related:
   ORBITALMAG=     F  switch on orbital magnetization
   LCHIMAG   =     F  perturbation theory with respect to B field
   DQ        =  0.001000  dq finite difference perturbation B field
   LLRAUG    =     F  two centre corrections for induced B field



--------------------------------------------------------------------------------------------------------


 Static calculation
 charge density and potential will be updated during run
 non-spin polarized calculation
 Variant of blocked Davidson
 Davidson routine will perform the subspace rotation
 perform sub-space diagonalisation
    after iterative eigenvector-optimisation
 modified Broyden-mixing scheme, WC =      100.0
 initial mixing is a Kerker type mixing with AMIX =  0.4000 and BMIX =      1.0000
 Hartree-type preconditioning will be used
 using additional bands            4
 real space projection scheme for non local part
 use partial core corrections
 calculate Harris-corrections to forces   (improved forces if not selfconsistent)
 use gradient corrections 
 use of overlap-Matrix (Vanderbilt PP)
 Gauss-broadening in eV      SIGMA  =   0.05


--------------------------------------------------------------------------------------------------------


  energy-cutoff  :      400.00
  volume of cell :     1019.68
      direct lattice vectors                 reciprocal lattice vectors
    10.251061500  0.000000000  0.000000000     0.097550873  0.002051134  0.001898991
    -0.204525200  9.727113700  0.000000000     0.000000000  0.102805419 -0.000337873
    -0.199775800  0.033608500 10.226151500     0.000000000 -0.000000000  0.097788498

  length of vectors
    10.251061500  9.729263666 10.228157918     0.097590912  0.102805974  0.097788498



 k-points in units of 2pi/SCALE and weight: read from INCAR                         
   0.00000000  0.00000000  0.00000000       1.000

 k-points in reciprocal lattice and weights: read from INCAR                         
   0.00000000  0.00000000  0.00000000       1.000

 position of ions in fractional coordinates (direct lattice) 
   0.54908817  0.37431824  0.46606682
   0.51570969  0.54184320  0.52128996
   0.39990006  0.45550080  0.42316801
   0.55595151  0.50680624  0.35789318
   0.50143535  0.46800451  0.44502960

 position of ions in cartesian coordinates  (Angst):
   5.45907020  3.65669990  4.76606990
   5.07161000  5.28809020  5.33079010
   3.92170000  4.44493010  4.32738020
   5.52394010  4.94179020  3.65986990
   4.95561980  4.56728990  4.55094010



--------------------------------------------------------------------------------------------------------


 k-point  1 :   0.0000 0.0000 0.0000  plane waves:   18497

 maximum and minimum number of plane-waves per node :     18497    18497

 maximum number of plane-waves:     18497
 maximum index in each direction: 
   IXMAX=   16   IYMAX=   15   IZMAX=   16
   IXMIN=  -16   IYMIN=  -15   IZMIN=  -16


 serial   3D FFT for wavefunctions
 parallel 3D FFT for charge:
    minimum data exchange during FFTs selected (reduces bandwidth)


 total amount of memory used by VASP MPI-rank0   274719. kBytes
=======================================================================

   base      :      30000. kBytes
   nonlr-proj:       1207. kBytes
   fftplans  :      86584. kBytes
   grid      :     154542. kBytes
   one-center:         15. kBytes
   wavefun   :       2371. kBytes

     INWAV:  cpu time    0.0000: real time    0.0000
 Broyden mixing: mesh for mixing (old mesh)
   NGX = 33   NGY = 31   NGZ = 33
  (NGX  =140   NGY  =128   NGZ  =140)
  gives a total of  33759 points

 initial charge density was supplied:
 charge density of overlapping atoms calculated
 number of electron       8.0000000 magnetization 
 keeping initial charge density in first step


--------------------------------------------------------------------------------------------------------


 Maximum index for non-local projection operator         4292
 Maximum index for augmentation-charges         3525 (set IRDMAX)


--------------------------------------------------------------------------------------------------------


 First call to EWALD:  gamma=   0.176
 Maximum number of real-space cells 3x 3x 3
 Maximum number of reciprocal cells 3x 3x 3

    FEWALD:  cpu time    0.0007: real time    0.0007


--------------------------------------- Iteration      1(   1)  ---------------------------------------


    POTLOK:  cpu time    1.6566: real time    1.6608
    SETDIJ:  cpu time    0.0067: real time    0.0067
     EDDAV:  cpu time    0.6033: real time    0.6048
       DOS:  cpu time    0.0002: real time    0.0002
    --------------------------------------------
      LOOP:  cpu time    2.2668: real time    2.2725

 eigenvalue-minimisations  :    24
 total energy-change (2. order) : 0.1774926E+02  (-0.2082497E+03)
 number of electron       8.0000000 magnetization 
 augmentation part        8.0000000 magnetization 

 Free energy of the ion-electron system (eV)
  ---------------------------------------------------
  alpha Z        PSCENC =         0.23757468
  Ewald energy   TEWEN  =       133.99905864
  -Hartree energ DENC   =      -247.04267692
  -exchange      EXHF   =         0.00000000
  -V(xc)+E(xc)   XCENC  =        22.11220941
  PAW double counting   =       117.05815612     -117.66307307
  entropy T*S    EENTRO =        -0.00000000
  eigenvalues    EBANDS =       -87.99374183
  atomic energy  EATOM  =       197.04175453
  Solvation  Ediel_sol  =         0.00000000
  ---------------------------------------------------
  free energy    TOTEN  =        17.74926156 eV

  energy without entropy =       17.74926156  energy(sigma->0) =       17.74926156


--------------------------------------------------------------------------------------------------------




--------------------------------------- Iteration      1(   2)  ---------------------------------------


     EDDAV:  cpu time    0.4287: real time    0.4299
       DOS:  cpu time    0.0001: real time    0.0001
    --------------------------------------------
      LOOP:  cpu time    0.4288: real time    0.4300

 eigenvalue-minimisations  :    16
 total energy-change (2. order) :-0.3993271E+02  (-0.3993271E+02)
 number of electron       8.0000000 magnetization 
 augmentation part        8.0000000 magnetization 

 Free energy of the ion-electron system (eV)
  ---------------------------------------------------
  alpha Z        PSCENC =         0.23757468
  Ewald energy   TEWEN  =       133.99905864
  -Hartree energ DENC   =      -247.04267692
  -exchange      EXHF   =         0.00000000
  -V(xc)+E(xc)   XCENC  =        22.11220941
  PAW double counting   =       117.05815612     -117.66307307
  entropy T*S    EENTRO =        -0.00000000
  eigenvalues    EBANDS =      -127.92645510
  atomic energy  EATOM  =       197.04175453
  Solvation  Ediel_sol  =         0.00000000
  ---------------------------------------------------
  free energy    TOTEN  =       -22.18345170 eV

  energy without entropy =      -22.18345170  energy(sigma->0) =      -22.18345170


--------------------------------------------------------------------------------------------------------




--------------------------------------- Iteration      1(   3)  ---------------------------------------


     EDDAV:  cpu time    0.4343: real time    0.4354
       DOS:  cpu time    0.0001: real time    0.0001
    --------------------------------------------
      LOOP:  cpu time    0.4344: real time    0.4354

 eigenvalue-minimisations  :    16
 total energy-change (2. order) :-0.5316956E+01  (-0.5316956E+01)
 number of electron       8.0000000 magnetization 
 augmentation part        8.0000000 magnetization 

 Free energy of the ion-electron system (eV)
  ---------------------------------------------------
  alpha Z        PSCENC =         0.23757468
  Ewald energy   TEWEN  =       133.99905864
  -Hartree energ DENC   =      -247.04267692
  -exchange      EXHF   =         0.00000000
  -V(xc)+E(xc)   XCENC  =        22.11220941
  PAW double counting   =       117.05815612     -117.66307307
  entropy T*S    EENTRO =        -0.00000000
  eigenvalues    EBANDS =      -133.24341071
  atomic energy  EATOM  =       197.04175453
  Solvation  Ediel_sol  =         0.00000000
  ---------------------------------------------------
  free energy    TOTEN  =       -27.50040731 eV

  energy without entropy =      -27.50040731  energy(sigma->0) =      -27.50040731


--------------------------------------------------------------------------------------------------------




--------------------------------------- Iteration      1(   4)  ---------------------------------------


     EDDAV:  cpu time    0.7827: real time    0.7845
       DOS:  cpu time    0.0001: real time    0.0001
    --------------------------------------------
      LOOP:  cpu time    0.7828: real time    0.7846

 eigenvalue-minimisations  :    32
 total energy-change (2. order) :-0.2264652E+00  (-0.2264652E+00)
 number of electron       8.0000000 magnetization 
 augmentation part        8.0000000 magnetization 

 Free energy of the ion-electron system (eV)
  ---------------------------------------------------
  alpha Z        PSCENC =         0.23757468
  Ewald energy   TEWEN  =       133.99905864
  -Hartree energ DENC   =      -247.04267692
  -exchange      EXHF   =         0.00000000
  -V(xc)+E(xc)   XCENC  =        22.11220941
  PAW double counting   =       117.05815612     -117.66307307
  entropy T*S    EENTRO =        -0.00000000
  eigenvalues    EBANDS =      -133.46987587
  atomic energy  EATOM  =       197.04175453
  Solvation  Ediel_sol  =         0.00000000
  ---------------------------------------------------
  free energy    TOTEN  =       -27.72687247 eV

  energy without entropy =      -27.72687247  energy(sigma->0) =      -27.72687247


--------------------------------------------------------------------------------------------------------




--------------------------------------- Iteration      1(   5)  ---------------------------------------


     EDDAV:  cpu time    0.7713: real time    0.7731
       DOS:  cpu time    0.0001: real time    0.0001
    CHARGE:  cpu time    0.0884: real time    0.0887
    MIXING:  cpu time    0.0326: real time    0.0327
    --------------------------------------------
      LOOP:  cpu time    0.8924: real time    0.8945

 eigenvalue-minimisations  :    32
 total energy-change (2. order) :-0.7645305E-04  (-0.7645305E-04)
 number of electron       8.0000004 magnetization 
 augmentation part        0.2322734 magnetization 

 Broyden mixing:
  rms(total) = 0.90691E+00    rms(broyden)= 0.90665E+00
  rms(prec ) = 0.12727E+01
  weight for this iteration     100.00

 Free energy of the ion-electron system (eV)
  ---------------------------------------------------
  alpha Z        PSCENC =         0.23757468
  Ewald energy   TEWEN  =       133.99905864
  -Hartree energ DENC   =      -247.04267692
  -exchange      EXHF   =         0.00000000
  -V(xc)+E(xc)   XCENC  =        22.11220941
  PAW double counting   =       117.05815612     -117.66307307
  entropy T*S    EENTRO =        -0.00000000
  eigenvalues    EBANDS =      -133.46995232
  atomic energy  EATOM  =       197.04175453
  Solvation  Ediel_sol  =         0.00000000
  ---------------------------------------------------
  free energy    TOTEN  =       -27.72694893 eV

  energy without entropy =      -27.72694893  energy(sigma->0) =      -27.72694893


--------------------------------------------------------------------------------------------------------




--------------------------------------- Iteration      1(   6)  ---------------------------------------


    POTLOK:  cpu time    1.5708: real time    1.5745
    SETDIJ:  cpu time    0.0062: real time    0.0062
     EDDAV:  cpu time    0.6030: real time    0.6044
       DOS:  cpu time    0.0001: real time    0.0001
    CHARGE:  cpu time    0.0829: real time    0.0831
    MIXING:  cpu time    0.0330: real time    0.0331
    --------------------------------------------
      LOOP:  cpu time    2.2960: real time    2.3015

 eigenvalue-minimisations  :    24
 total energy-change (2. order) : 0.3109782E+01  (-0.9287455E+00)
 number of electron       8.0000004 magnetization 
 augmentation part        0.2031689 magnetization 

 Broyden mixing:
  rms(total) = 0.46124E+00    rms(broyden)= 0.46111E+00
  rms(prec ) = 0.57679E+00
  weight for this iteration     100.00

 eigenvalues of (default mixing * dielectric matrix)
  average eigenvalue GAMMA=   1.2096
  1.2096

 Free energy of the ion-electron system (eV)
  ---------------------------------------------------
  alpha Z        PSCENC =         0.23757468
  Ewald energy   TEWEN  =       133.99905864
  -Hartree energ DENC   =      -267.52199074
  -exchange      EXHF   =         0.00000000
  -V(xc)+E(xc)   XCENC  =        23.35474297
  PAW double counting   =       244.99573534     -245.78626718
  entropy T*S    EENTRO =        -0.00000000
  eigenvalues    EBANDS =      -110.93777556
  atomic energy  EATOM  =       197.04175453
  Solvation  Ediel_sol  =         0.00000000
  ---------------------------------------------------
  free energy    TOTEN  =       -24.61716732 eV

  energy without entropy =      -24.61716732  energy(sigma->0) =      -24.61716732


--------------------------------------------------------------------------------------------------------




--------------------------------------- Iteration      1(   7)  ---------------------------------------


    POTLOK:  cpu time    1.5830: real time    1.5867
    SETDIJ:  cpu time    0.0065: real time    0.0065
     EDDAV:  cpu time    0.6431: real time    0.6446
       DOS:  cpu time    0.0001: real time    0.0001
    CHARGE:  cpu time    0.0924: real time    0.0927
    MIXING:  cpu time    0.0352: real time    0.0353
    --------------------------------------------
      LOOP:  cpu time    2.3604: real time    2.3660

 eigenvalue-minimisations  :    24
 total energy-change (2. order) : 0.5213950E+00  (-0.8544252E-01)
 number of electron       8.0000004 magnetization 
 augmentation part        0.1941202 magnetization 

 Broyden mixing:
  rms(total) = 0.23281E+00    rms(broyden)= 0.23276E+00
  rms(prec ) = 0.28412E+00
  weight for this iteration     100.00

 eigenvalues of (default mixing * dielectric matrix)
  average eigenvalue GAMMA=   1.6956
  1.2670  2.1243

 Free energy of the ion-electron system (eV)
  ---------------------------------------------------
  alpha Z        PSCENC =         0.23757468
  Ewald energy   TEWEN  =       133.99905864
  -Hartree energ DENC   =      -278.22110056
  -exchange      EXHF   =         0.00000000
  -V(xc)+E(xc)   XCENC  =        24.15294792
  PAW double counting   =       383.68714262     -384.51044570
  entropy T*S    EENTRO =        -0.00000000
  eigenvalues    EBANDS =      -100.48270449
  atomic energy  EATOM  =       197.04175453
  Solvation  Ediel_sol  =         0.00000000
  ---------------------------------------------------
  free energy    TOTEN  =       -24.09577236 eV

  energy without entropy =      -24.09577236  energy(sigma->0) =      -24.09577236


--------------------------------------------------------------------------------------------------------




--------------------------------------- Iteration      1(   8)  ---------------------------------------


    POTLOK:  cpu time    1.6213: real time    1.6252
    SETDIJ:  cpu time    0.0064: real time    0.0064
     EDDAV:  cpu time    0.8196: real time    0.8216
       DOS:  cpu time    0.0001: real time    0.0001
    CHARGE:  cpu time    0.0878: real time    0.0880
    MIXING:  cpu time    0.0355: real time    0.0356
    --------------------------------------------
      LOOP:  cpu time    2.5707: real time    2.5768

 eigenvalue-minimisations  :    32
 total energy-change (2. order) : 0.1661852E+00  (-0.1744854E-01)
 number of electron       8.0000004 magnetization 
 augmentation part        0.1914134 magnetization 

 Broyden mixing:
  rms(total) = 0.27332E-01    rms(broyden)= 0.27300E-01
  rms(prec ) = 0.56244E-01
  weight for this iteration     100.00

 eigenvalues of (default mixing * dielectric matrix)
  average eigenvalue GAMMA=   1.5815
  2.1624  1.1395  1.4428

 Free energy of the ion-electron system (eV)
  ---------------------------------------------------
  alpha Z        PSCENC =         0.23757468
  Ewald energy   TEWEN  =       133.99905864
  -Hartree energ DENC   =      -285.27096600
  -exchange      EXHF   =         0.00000000
  -V(xc)+E(xc)   XCENC  =        24.77940977
  PAW double counting   =       504.63706298     -505.44674981
  entropy T*S    EENTRO =        -0.00000000
  eigenvalues    EBANDS =       -93.90673197
  atomic energy  EATOM  =       197.04175453
  Solvation  Ediel_sol  =         0.00000000
  ---------------------------------------------------
  free energy    TOTEN  =       -23.92958719 eV

  energy without entropy =      -23.92958719  energy(sigma->0) =      -23.92958719


--------------------------------------------------------------------------------------------------------




--------------------------------------- Iteration      1(   9)  ---------------------------------------


    POTLOK:  cpu time    1.6789: real time    1.6829
    SETDIJ:  cpu time    0.0065: real time    0.0065
     EDDAV:  cpu time    0.8285: real time    0.8305
       DOS:  cpu time    0.0001: real time    0.0001
    CHARGE:  cpu time    0.0885: real time    0.0887
    MIXING:  cpu time    0.0376: real time    0.0377
    --------------------------------------------
      LOOP:  cpu time    2.6401: real time    2.6464

 eigenvalue-minimisations  :    32
 total energy-change (2. order) : 0.8353374E-02  (-0.3958754E-03)
 number of electron       8.0000004 magnetization 
 augmentation part        0.1908470 magnetization 

 Broyden mixing:
  rms(total) = 0.16542E-01    rms(broyden)= 0.16537E-01
  rms(prec ) = 0.36182E-01
  weight for this iteration     100.00

 eigenvalues of (default mixing * dielectric matrix)
  average eigenvalue GAMMA=   1.9003
  2.9663  2.4285  0.9828  1.2238

 Free energy of the ion-electron system (eV)
  ---------------------------------------------------
  alpha Z        PSCENC =         0.23757468
  Ewald energy   TEWEN  =       133.99905864
  -Hartree energ DENC   =      -286.80077397
  -exchange      EXHF   =         0.00000000
  -V(xc)+E(xc)   XCENC  =        24.86646889
  PAW double counting   =       504.51591730     -505.32246902
  entropy T*S    EENTRO =        -0.00000000
  eigenvalues    EBANDS =       -92.45876487
  atomic energy  EATOM  =       197.04175453
  Solvation  Ediel_sol  =         0.00000000
  ---------------------------------------------------
  free energy    TOTEN  =       -23.92123382 eV

  energy without entropy =      -23.92123382  energy(sigma->0) =      -23.92123382


--------------------------------------------------------------------------------------------------------




--------------------------------------- Iteration      1(  10)  ---------------------------------------


    POTLOK:  cpu time    1.5260: real time    1.5296
    SETDIJ:  cpu time    0.0064: real time    0.0064
     EDDAV:  cpu time    0.4639: real time    0.4650
       DOS:  cpu time    0.0001: real time    0.0001
    CHARGE:  cpu time    0.0913: real time    0.0915
    MIXING:  cpu time    0.0378: real time    0.0379
    --------------------------------------------
      LOOP:  cpu time    2.1255: real time    2.1305

 eigenvalue-minimisations  :    16
 total energy-change (2. order) : 0.8970230E-02  (-0.5473244E-03)
 number of electron       8.0000004 magnetization 
 augmentation part        0.1906546 magnetization 

 Broyden mixing:
  rms(total) = 0.70180E-02    rms(broyden)= 0.70165E-02
  rms(prec ) = 0.16523E-01
  weight for this iteration     100.00

 eigenvalues of (default mixing * dielectric matrix)
  average eigenvalue GAMMA=   2.1070
  1.2239  0.9949  3.3101  2.5030  2.5030

 Free energy of the ion-electron system (eV)
  ---------------------------------------------------
  alpha Z        PSCENC =         0.23757468
  Ewald energy   TEWEN  =       133.99905864
  -Hartree energ DENC   =      -288.39104922
  -exchange      EXHF   =         0.00000000
  -V(xc)+E(xc)   XCENC  =        24.93462242
  PAW double counting   =       494.07658876     -494.87893502
  entropy T*S    EENTRO =        -0.00000000
  eigenvalues    EBANDS =       -90.93187838
  atomic energy  EATOM  =       197.04175453
  Solvation  Ediel_sol  =         0.00000000
  ---------------------------------------------------
  free energy    TOTEN  =       -23.91226359 eV

  energy without entropy =      -23.91226359  energy(sigma->0) =      -23.91226359


--------------------------------------------------------------------------------------------------------




--------------------------------------- Iteration      1(  11)  ---------------------------------------


    POTLOK:  cpu time    1.4155: real time    1.4189
    SETDIJ:  cpu time    0.0064: real time    0.0064
     EDDAV:  cpu time    0.6355: real time    0.6370
       DOS:  cpu time    0.0001: real time    0.0001
    CHARGE:  cpu time    0.0868: real time    0.0870
    MIXING:  cpu time    0.0372: real time    0.0373
    --------------------------------------------
      LOOP:  cpu time    2.1814: real time    2.1866

 eigenvalue-minimisations  :    24
 total energy-change (2. order) :-0.9638590E-02  (-0.4993449E-03)
 number of electron       8.0000004 magnetization 
 augmentation part        0.1901001 magnetization 

 Broyden mixing:
  rms(total) = 0.73520E-02    rms(broyden)= 0.73509E-02
  rms(prec ) = 0.11543E-01
  weight for this iteration     100.00

 eigenvalues of (default mixing * dielectric matrix)
  average eigenvalue GAMMA=   2.1464
  4.6086  2.8625  2.2846  1.2453  0.9413  0.9360

 Free energy of the ion-electron system (eV)
  ---------------------------------------------------
  alpha Z        PSCENC =         0.23757468
  Ewald energy   TEWEN  =       133.99905864
  -Hartree energ DENC   =      -289.46440337
  -exchange      EXHF   =         0.00000000
  -V(xc)+E(xc)   XCENC  =        24.97487202
  PAW double counting   =       498.04545540     -498.85027464
  entropy T*S    EENTRO =        -0.00000000
  eigenvalues    EBANDS =       -89.90593943
  atomic energy  EATOM  =       197.04175453
  Solvation  Ediel_sol  =         0.00000000
  ---------------------------------------------------
  free energy    TOTEN  =       -23.92190218 eV

  energy without entropy =      -23.92190218  energy(sigma->0) =      -23.92190218


--------------------------------------------------------------------------------------------------------




--------------------------------------- Iteration      1(  12)  ---------------------------------------


    POTLOK:  cpu time    1.4113: real time    1.4146
    SETDIJ:  cpu time    0.0063: real time    0.0063
     EDDAV:  cpu time    0.8234: real time    0.8253
       DOS:  cpu time    0.0001: real time    0.0001
    CHARGE:  cpu time    0.0884: real time    0.0886
    MIXING:  cpu time    0.0381: real time    0.0382
    --------------------------------------------
      LOOP:  cpu time    2.3676: real time    2.3732

 eigenvalue-minimisations  :    32
 total energy-change (2. order) :-0.1937016E-02  (-0.7495768E-04)
 number of electron       8.0000004 magnetization 
 augmentation part        0.1903707 magnetization 

 Broyden mixing:
  rms(total) = 0.22736E-02    rms(broyden)= 0.22733E-02
  rms(prec ) = 0.51455E-02
  weight for this iteration     100.00

 eigenvalues of (default mixing * dielectric matrix)
  average eigenvalue GAMMA=   2.3243
  5.1585  3.2421  2.6038  1.9979  1.2596  1.0042  1.0042

 Free energy of the ion-electron system (eV)
  ---------------------------------------------------
  alpha Z        PSCENC =         0.23757468
  Ewald energy   TEWEN  =       133.99905864
  -Hartree energ DENC   =      -289.13162097
  -exchange      EXHF   =         0.00000000
  -V(xc)+E(xc)   XCENC  =        24.94675463
  PAW double counting   =       494.09615997     -494.89987515
  entropy T*S    EENTRO =        -0.00000000
  eigenvalues    EBANDS =       -90.21364552
  atomic energy  EATOM  =       197.04175453
  Solvation  Ediel_sol  =         0.00000000
  ---------------------------------------------------
  free energy    TOTEN  =       -23.92383919 eV

  energy without entropy =      -23.92383919  energy(sigma->0) =      -23.92383919


--------------------------------------------------------------------------------------------------------




--------------------------------------- Iteration      1(  13)  ---------------------------------------


    POTLOK:  cpu time    1.3799: real time    1.3832
    SETDIJ:  cpu time    0.0065: real time    0.0065
     EDDAV:  cpu time    0.4612: real time    0.4623
       DOS:  cpu time    0.0001: real time    0.0001
    CHARGE:  cpu time    0.0882: real time    0.0884
    MIXING:  cpu time    0.0404: real time    0.0404
    --------------------------------------------
      LOOP:  cpu time    1.9763: real time    1.9810

 eigenvalue-minimisations  :    16
 total energy-change (2. order) :-0.4299410E-02  (-0.1035896E-03)
 number of electron       8.0000004 magnetization 
 augmentation part        0.1903979 magnetization 

 Broyden mixing:
  rms(total) = 0.21722E-02    rms(broyden)= 0.21719E-02
  rms(prec ) = 0.29762E-02
  weight for this iteration     100.00

 eigenvalues of (default mixing * dielectric matrix)
  average eigenvalue GAMMA=   2.3887
  6.0849  3.8048  2.6072  2.2854  1.2818  1.0518  1.0518  0.9421

 Free energy of the ion-electron system (eV)
  ---------------------------------------------------
  alpha Z        PSCENC =         0.23757468
  Ewald energy   TEWEN  =       133.99905864
  -Hartree energ DENC   =      -289.12106161
  -exchange      EXHF   =         0.00000000
  -V(xc)+E(xc)   XCENC  =        24.94105056
  PAW double counting   =       495.62671683     -496.42944342
  entropy T*S    EENTRO =        -0.00000000
  eigenvalues    EBANDS =       -90.22378881
  atomic energy  EATOM  =       197.04175453
  Solvation  Ediel_sol  =         0.00000000
  ---------------------------------------------------
  free energy    TOTEN  =       -23.92813860 eV

  energy without entropy =      -23.92813860  energy(sigma->0) =      -23.92813860


--------------------------------------------------------------------------------------------------------




--------------------------------------- Iteration      1(  14)  ---------------------------------------


    POTLOK:  cpu time    1.3618: real time    1.3651
    SETDIJ:  cpu time    0.0064: real time    0.0064
     EDDAV:  cpu time    0.8372: real time    0.8392
       DOS:  cpu time    0.0001: real time    0.0001
    CHARGE:  cpu time    0.0866: real time    0.0868
    MIXING:  cpu time    0.0376: real time    0.0377
    --------------------------------------------
      LOOP:  cpu time    2.3298: real time    2.3353

 eigenvalue-minimisations  :    32
 total energy-change (2. order) :-0.6735860E-03  (-0.8479600E-05)
 number of electron       8.0000004 magnetization 
 augmentation part        0.1903757 magnetization 

 Broyden mixing:
  rms(total) = 0.82791E-03    rms(broyden)= 0.82783E-03
  rms(prec ) = 0.14003E-02
  weight for this iteration     100.00

 eigenvalues of (default mixing * dielectric matrix)
  average eigenvalue GAMMA=   2.5223
  6.9301  4.2500  2.7284  2.4928  2.0043  1.2741  1.0078  1.0078  1.0058

 Free energy of the ion-electron system (eV)
  ---------------------------------------------------
  alpha Z        PSCENC =         0.23757468
  Ewald energy   TEWEN  =       133.99905864
  -Hartree energ DENC   =      -289.08852645
  -exchange      EXHF   =         0.00000000
  -V(xc)+E(xc)   XCENC  =        24.93577748
  PAW double counting   =       494.35114050     -495.15420833
  entropy T*S    EENTRO =        -0.00000000
  eigenvalues    EBANDS =       -90.25138324
  atomic energy  EATOM  =       197.04175453
  Solvation  Ediel_sol  =         0.00000000
  ---------------------------------------------------
  free energy    TOTEN  =       -23.92881219 eV

  energy without entropy =      -23.92881219  energy(sigma->0) =      -23.92881219


--------------------------------------------------------------------------------------------------------




--------------------------------------- Iteration      1(  15)  ---------------------------------------


    POTLOK:  cpu time    1.3662: real time    1.3694
    SETDIJ:  cpu time    0.0064: real time    0.0064
     EDDAV:  cpu time    0.4583: real time    0.4594
       DOS:  cpu time    0.0001: real time    0.0001
    CHARGE:  cpu time    0.0856: real time    0.0858
    MIXING:  cpu time    0.0383: real time    0.0384
    --------------------------------------------
      LOOP:  cpu time    1.9549: real time    1.9595

 eigenvalue-minimisations  :    16
 total energy-change (2. order) :-0.3514755E-03  (-0.1922932E-05)
 number of electron       8.0000004 magnetization 
 augmentation part        0.1903769 magnetization 

 Broyden mixing:
  rms(total) = 0.54331E-03    rms(broyden)= 0.54331E-03
  rms(prec ) = 0.72389E-03
  weight for this iteration     100.00

 eigenvalues of (default mixing * dielectric matrix)
  average eigenvalue GAMMA=   2.5565
  7.5628  4.7273  3.0080  2.5328  2.2370  1.3117  1.1920  0.9929  0.9929  1.0071

 Free energy of the ion-electron system (eV)
  ---------------------------------------------------
  alpha Z        PSCENC =         0.23757468
  Ewald energy   TEWEN  =       133.99905864
  -Hartree energ DENC   =      -289.09866029
  -exchange      EXHF   =         0.00000000
  -V(xc)+E(xc)   XCENC  =        24.93618025
  PAW double counting   =       494.06865383     -494.87176575
  entropy T*S    EENTRO =        -0.00000000
  eigenvalues    EBANDS =       -90.24195955
  atomic energy  EATOM  =       197.04175453
  Solvation  Ediel_sol  =         0.00000000
  ---------------------------------------------------
  free energy    TOTEN  =       -23.92916366 eV

  energy without entropy =      -23.92916366  energy(sigma->0) =      -23.92916366


--------------------------------------------------------------------------------------------------------




--------------------------------------- Iteration      1(  16)  ---------------------------------------


    POTLOK:  cpu time    1.3950: real time    1.3984
    SETDIJ:  cpu time    0.0064: real time    0.0064
     EDDAV:  cpu time    0.4646: real time    0.4657
       DOS:  cpu time    0.0001: real time    0.0001
    CHARGE:  cpu time    0.0953: real time    0.0956
    MIXING:  cpu time    0.0418: real time    0.0419
    --------------------------------------------
      LOOP:  cpu time    2.0032: real time    2.0079

 eigenvalue-minimisations  :    16
 total energy-change (2. order) :-0.7010924E-04  (-0.2197034E-06)
 number of electron       8.0000004 magnetization 
 augmentation part        0.1903731 magnetization 

 Broyden mixing:
  rms(total) = 0.17288E-03    rms(broyden)= 0.17283E-03
  rms(prec ) = 0.29473E-03
  weight for this iteration     100.00

 eigenvalues of (default mixing * dielectric matrix)
  average eigenvalue GAMMA=   2.7051
  8.3353  4.9953  3.9036  2.6928  2.4234  2.1165  1.2820  1.0810  0.9914  0.9676
  0.9676

 Free energy of the ion-electron system (eV)
  ---------------------------------------------------
  alpha Z        PSCENC =         0.23757468
  Ewald energy   TEWEN  =       133.99905864
  -Hartree energ DENC   =      -289.11478286
  -exchange      EXHF   =         0.00000000
  -V(xc)+E(xc)   XCENC  =        24.93736429
  PAW double counting   =       494.33713120     -495.14025927
  entropy T*S    EENTRO =        -0.00000000
  eigenvalues    EBANDS =       -90.22707498
  atomic energy  EATOM  =       197.04175453
  Solvation  Ediel_sol  =         0.00000000
  ---------------------------------------------------
  free energy    TOTEN  =       -23.92923377 eV

  energy without entropy =      -23.92923377  energy(sigma->0) =      -23.92923377


--------------------------------------------------------------------------------------------------------




--------------------------------------- Iteration      1(  17)  ---------------------------------------


    POTLOK:  cpu time    1.4797: real time    1.4833
    SETDIJ:  cpu time    0.0064: real time    0.0064
     EDDAV:  cpu time    0.7147: real time    0.7164
       DOS:  cpu time    0.0001: real time    0.0001
    CHARGE:  cpu time    0.0857: real time    0.0859
    MIXING:  cpu time    0.0421: real time    0.0422
    --------------------------------------------
      LOOP:  cpu time    2.3286: real time    2.3343

 eigenvalue-minimisations  :    24
 total energy-change (2. order) :-0.3728898E-04  (-0.2856648E-06)
 number of electron       8.0000004 magnetization 
 augmentation part        0.1903646 magnetization 

 Broyden mixing:
  rms(total) = 0.96931E-04    rms(broyden)= 0.96885E-04
  rms(prec ) = 0.15753E-03
  weight for this iteration     100.00

 eigenvalues of (default mixing * dielectric matrix)
  average eigenvalue GAMMA=   2.5888
  8.4991  5.2213  3.7667  2.6833  2.3492  2.0804  1.2789  1.2227  1.0255  1.0255
  0.9566  0.9566

 Free energy of the ion-electron system (eV)
  ---------------------------------------------------
  alpha Z        PSCENC =         0.23757468
  Ewald energy   TEWEN  =       133.99905864
  -Hartree energ DENC   =      -289.12701115
  -exchange      EXHF   =         0.00000000
  -V(xc)+E(xc)   XCENC  =        24.93786036
  PAW double counting   =       494.41940231     -495.22257599
  entropy T*S    EENTRO =        -0.00000000
  eigenvalues    EBANDS =       -90.21533444
  atomic energy  EATOM  =       197.04175453
  Solvation  Ediel_sol  =         0.00000000
  ---------------------------------------------------
  free energy    TOTEN  =       -23.92927106 eV

  energy without entropy =      -23.92927106  energy(sigma->0) =      -23.92927106


--------------------------------------------------------------------------------------------------------




--------------------------------------- Iteration      1(  18)  ---------------------------------------


    POTLOK:  cpu time    1.4943: real time    1.4979
    SETDIJ:  cpu time    0.0064: real time    0.0064
     EDDAV:  cpu time    0.8067: real time    0.8086
       DOS:  cpu time    0.0001: real time    0.0001
    CHARGE:  cpu time    0.0876: real time    0.0878
    MIXING:  cpu time    0.0431: real time    0.0432
    --------------------------------------------
      LOOP:  cpu time    2.4381: real time    2.4439

 eigenvalue-minimisations  :    32
 total energy-change (2. order) :-0.3018679E-05  (-0.2842033E-07)
 number of electron       8.0000004 magnetization 
 augmentation part        0.1903697 magnetization 

 Broyden mixing:
  rms(total) = 0.31052E-04    rms(broyden)= 0.31036E-04
  rms(prec ) = 0.67660E-04
  weight for this iteration     100.00

 eigenvalues of (default mixing * dielectric matrix)
  average eigenvalue GAMMA=   2.6204
  8.6446  5.3917  4.0393  2.9325  2.6051  2.2804  1.7037  1.2353  1.2353  0.9707
  0.9707  1.0280  1.0280

 Free energy of the ion-electron system (eV)
  ---------------------------------------------------
  alpha Z        PSCENC =         0.23757468
  Ewald energy   TEWEN  =       133.99905864
  -Hartree energ DENC   =      -289.12205847
  -exchange      EXHF   =         0.00000000
  -V(xc)+E(xc)   XCENC  =        24.93757566
  PAW double counting   =       494.39858806     -495.20173084
  entropy T*S    EENTRO =        -0.00000000
  eigenvalues    EBANDS =       -90.22003635
  atomic energy  EATOM  =       197.04175453
  Solvation  Ediel_sol  =         0.00000000
  ---------------------------------------------------
  free energy    TOTEN  =       -23.92927408 eV

  energy without entropy =      -23.92927408  energy(sigma->0) =      -23.92927408


--------------------------------------------------------------------------------------------------------




--------------------------------------- Iteration      1(  19)  ---------------------------------------


    POTLOK:  cpu time    1.4875: real time    1.4910
    SETDIJ:  cpu time    0.0064: real time    0.0064
     EDDAV:  cpu time    0.4492: real time    0.4503
       DOS:  cpu time    0.0001: real time    0.0001
    CHARGE:  cpu time    0.0807: real time    0.0809
    MIXING:  cpu time    0.0440: real time    0.0441
    --------------------------------------------
      LOOP:  cpu time    2.0678: real time    2.0727

 eigenvalue-minimisations  :    16
 total energy-change (2. order) :-0.3558927E-05  (-0.1613169E-07)
 number of electron       8.0000004 magnetization 
 augmentation part        0.1903697 magnetization 

 Broyden mixing:
  rms(total) = 0.18555E-04    rms(broyden)= 0.18554E-04
  rms(prec ) = 0.34403E-04
  weight for this iteration     100.00

 eigenvalues of (default mixing * dielectric matrix)
  average eigenvalue GAMMA=   2.5780
  8.6967  5.4531  4.2032  3.1169  2.6625  2.2907  2.1341  1.2757  0.9407  1.0094
  1.0094  1.0746  1.1126  1.1126

 Free energy of the ion-electron system (eV)
  ---------------------------------------------------
  alpha Z        PSCENC =         0.23757468
  Ewald energy   TEWEN  =       133.99905864
  -Hartree energ DENC   =      -289.12179058
  -exchange      EXHF   =         0.00000000
  -V(xc)+E(xc)   XCENC  =        24.93751681
  PAW double counting   =       494.41180579     -495.21494324
  entropy T*S    EENTRO =        -0.00000000
  eigenvalues    EBANDS =       -90.22025427
  atomic energy  EATOM  =       197.04175453
  Solvation  Ediel_sol  =         0.00000000
  ---------------------------------------------------
  free energy    TOTEN  =       -23.92927764 eV

  energy without entropy =      -23.92927764  energy(sigma->0) =      -23.92927764


--------------------------------------------------------------------------------------------------------




--------------------------------------- Iteration      1(  20)  ---------------------------------------


    POTLOK:  cpu time    1.5005: real time    1.5041
    SETDIJ:  cpu time    0.0065: real time    0.0065
     EDDAV:  cpu time    0.8113: real time    0.8132
       DOS:  cpu time    0.0001: real time    0.0001
    CHARGE:  cpu time    0.0856: real time    0.0858
    MIXING:  cpu time    0.0473: real time    0.0475
    --------------------------------------------
      LOOP:  cpu time    2.4513: real time    2.4572

 eigenvalue-minimisations  :    32
 total energy-change (2. order) :-0.1338106E-05  (-0.2058748E-08)
 number of electron       8.0000004 magnetization 
 augmentation part        0.1903698 magnetization 

 Broyden mixing:
  rms(total) = 0.10835E-04    rms(broyden)= 0.10834E-04
  rms(prec ) = 0.22511E-04
  weight for this iteration     100.00

 eigenvalues of (default mixing * dielectric matrix)
  average eigenvalue GAMMA=   2.6332
  8.7330  5.6287  4.5958  3.6936  2.7606  2.5027  2.2478  1.9280  1.2675  1.1785
  1.0104  1.0104  0.9991  0.9991  0.9424

 Free energy of the ion-electron system (eV)
  ---------------------------------------------------
  alpha Z        PSCENC =         0.23757468
  Ewald energy   TEWEN  =       133.99905864
  -Hartree energ DENC   =      -289.12166424
  -exchange      EXHF   =         0.00000000
  -V(xc)+E(xc)   XCENC  =        24.93752099
  PAW double counting   =       494.39972748     -495.20286617
  entropy T*S    EENTRO =        -0.00000000
  eigenvalues    EBANDS =       -90.22038489
  atomic energy  EATOM  =       197.04175453
  Solvation  Ediel_sol  =         0.00000000
  ---------------------------------------------------
  free energy    TOTEN  =       -23.92927898 eV

  energy without entropy =      -23.92927898  energy(sigma->0) =      -23.92927898


--------------------------------------------------------------------------------------------------------




--------------------------------------- Iteration      1(  21)  ---------------------------------------


    POTLOK:  cpu time    1.4916: real time    1.4952
    SETDIJ:  cpu time    0.0062: real time    0.0062
     EDDAV:  cpu time    0.6063: real time    0.6077
       DOS:  cpu time    0.0001: real time    0.0001
    CHARGE:  cpu time    0.0824: real time    0.0826
    MIXING:  cpu time    0.0452: real time    0.0453
    --------------------------------------------
      LOOP:  cpu time    2.2317: real time    2.2370

 eigenvalue-minimisations  :    24
 total energy-change (2. order) :-0.1024887E-05  (-0.2355591E-08)
 number of electron       8.0000004 magnetization 
 augmentation part        0.1903697 magnetization 

 Broyden mixing:
  rms(total) = 0.70989E-05    rms(broyden)= 0.70983E-05
  rms(prec ) = 0.12136E-04
  weight for this iteration     100.00

 eigenvalues of (default mixing * dielectric matrix)
  average eigenvalue GAMMA=   2.6670
  8.7461  5.8690  4.9544  3.9261  2.7672  2.7672  2.2762  2.1230  1.8803  1.2684
  1.1335  1.0058  1.0058  0.9647  0.9647  1.0201

 Free energy of the ion-electron system (eV)
  ---------------------------------------------------
  alpha Z        PSCENC =         0.23757468
  Ewald energy   TEWEN  =       133.99905864
  -Hartree energ DENC   =      -289.12162182
  -exchange      EXHF   =         0.00000000
  -V(xc)+E(xc)   XCENC  =        24.93752183
  PAW double counting   =       494.39311834     -495.19625952
  entropy T*S    EENTRO =        -0.00000000
  eigenvalues    EBANDS =       -90.22042668
  atomic energy  EATOM  =       197.04175453
  Solvation  Ediel_sol  =         0.00000000
  ---------------------------------------------------
  free energy    TOTEN  =       -23.92928000 eV

  energy without entropy =      -23.92928000  energy(sigma->0) =      -23.92928000


--------------------------------------------------------------------------------------------------------




--------------------------------------- Iteration      1(  22)  ---------------------------------------


    POTLOK:  cpu time    1.5096: real time    1.5132
    SETDIJ:  cpu time    0.0062: real time    0.0062
     EDDAV:  cpu time    0.7762: real time    0.7780
       DOS:  cpu time    0.0001: real time    0.0001
    --------------------------------------------
      LOOP:  cpu time    2.2920: real time    2.2974

 eigenvalue-minimisations  :    32
 total energy-change (2. order) :-0.6494034E-06  (-0.1118437E-08)
 number of electron       8.0000004 magnetization 
 augmentation part        0.1903697 magnetization 

 Free energy of the ion-electron system (eV)
  ---------------------------------------------------
  alpha Z        PSCENC =         0.23757468
  Ewald energy   TEWEN  =       133.99905864
  -Hartree energ DENC   =      -289.12190947
  -exchange      EXHF   =         0.00000000
  -V(xc)+E(xc)   XCENC  =        24.93753678
  PAW double counting   =       494.39813962     -495.20128213
  entropy T*S    EENTRO =        -0.00000000
  eigenvalues    EBANDS =       -90.22015330
  atomic energy  EATOM  =       197.04175453
  Solvation  Ediel_sol  =         0.00000000
  ---------------------------------------------------
  free energy    TOTEN  =       -23.92928065 eV

  energy without entropy =      -23.92928065  energy(sigma->0) =      -23.92928065


--------------------------------------------------------------------------------------------------------




 average (electrostatic) potential at core
  the test charge radii are     0.5201  0.6991
  (the norm of the test charge is              1.0000)
       1 -41.7762       2 -41.7163       3 -41.7886       4 -41.2541       5 -57.8659



 E-fermi :  -8.6647     XC(G=0):  -0.6732     alpha+bet : -0.2066


 k-point     1 :       0.0000    0.0000    0.0000
  band No.  band energies     occupation 
      1     -17.0356      2.00000
      2      -9.7443      2.00000
      3      -9.4237      2.00000
      4      -8.9065      2.00000
      5      -0.5070      0.00000
      6       0.9760      0.00000
      7       1.0159      0.00000
      8       1.0222      0.00000


--------------------------------------------------------------------------------------------------------


 soft charge-density along one line, spin component           1
         0         1         2         3         4         5         6         7         8         9
 total charge-density along one line

 pseudopotential strength for first ion, spin component:           1
 -2.343  -4.039  -0.002   0.000   0.001
 -4.039  -6.874  -0.005   0.001   0.003
 -0.002  -0.005  -0.333  -0.001  -0.002
  0.000   0.001  -0.001  -0.337   0.001
  0.001   0.003  -0.002   0.001  -0.336
 total augmentation occupancy for first ion, spin component:           1
  3.664  -0.653   0.404  -0.093  -0.226
 -0.653   0.132  -0.074   0.019   0.040
  0.404  -0.074   0.047  -0.009  -0.021
 -0.093   0.019  -0.009   0.013   0.004
 -0.226   0.040  -0.021   0.004   0.022


------------------------ aborting loop because EDIFF is reached ----------------------------------------


    CHARGE:  cpu time    0.0787: real time    0.0789
    FORLOC:  cpu time    0.1055: real time    0.1058
    FORNL :  cpu time    0.1463: real time    0.1466
    STRESS:  cpu time    0.5476: real time    0.5489
    FORCOR:  cpu time    1.5420: real time    1.5457
    FORHAR:  cpu time    0.5544: real time    0.5557
    MIXING:  cpu time    0.0528: real time    0.0529
    OFIELD:  cpu time    0.0000: real time    0.0000

  FORCE on cell =-STRESS in cart. coord.  units (eV):
  Direction    XX          YY          ZZ          XY          YZ          ZX
  --------------------------------------------------------------------------------------
  Alpha Z     0.23757     0.23757     0.23757
  Ewald      48.67484    48.45477    36.86943    -3.98807     5.13682    -0.95633
  Hartree    95.64237   100.09643    93.38289    -1.04978     1.01419    -1.10298
  E(xc)     -27.39406   -27.43075   -27.44135    -0.01349     0.01860    -0.01591
  Local    -201.49598  -206.90180  -190.18791     4.14794    -4.92313     2.38875
  n-local   -16.32978   -16.39665   -16.30275     0.03406    -0.02729    -0.05894
  augment     0.09582     0.10350     0.11855     0.00799    -0.01026    -0.00472
  Kinetic   100.93792   102.92627   103.48399     0.67203    -1.03326     0.69367
  Fock        0.00000     0.00000     0.00000     0.00000     0.00000     0.00000
  -------------------------------------------------------------------------------------
  Total       0.36870     1.08934     0.16042    -0.18930     0.17567     0.94353
  in kB       0.57933     1.71163     0.25206    -0.29744     0.27602     1.48252
  external pressure =        0.85 kB  Pullay stress =        0.00 kB


 VOLUME and BASIS-vectors are now :
 -----------------------------------------------------------------------------
  energy-cutoff  :      400.00
  volume of cell :     1019.68
      direct lattice vectors                 reciprocal lattice vectors
    10.251061500  0.000000000  0.000000000     0.097550873  0.002051134  0.001898991
    -0.204525200  9.727113700  0.000000000     0.000000000  0.102805419 -0.000337873
    -0.199775800  0.033608500 10.226151500     0.000000000 -0.000000000  0.097788498

  length of vectors
    10.251061500  9.729263666 10.228157918     0.097590912  0.102805974  0.097788498


 FORCES acting on ions
    electron-ion (+dipol)            ewald-force                    non-local-force                 convergence-correction
 -----------------------------------------------------------------------------------------------
   -.255E+02 0.470E+02 -.114E+02   0.287E+02 -.532E+02 0.131E+02   -.294E+01 0.513E+01 -.112E+01   -.114E-04 0.195E-04 -.532E-05
   -.558E+01 -.365E+02 -.399E+02   0.638E+01 0.411E+02 0.451E+02   -.637E+00 -.403E+01 -.430E+01   -.457E-05 -.153E-04 -.142E-04
   0.530E+02 0.634E+01 0.112E+02   -.598E+02 -.728E+01 -.128E+02   0.583E+01 0.648E+00 0.124E+01   0.217E-04 0.255E-05 0.513E-05
   -.263E+02 -.175E+02 0.416E+02   0.283E+02 0.192E+02 -.453E+02   -.266E+01 -.165E+01 0.403E+01   -.915E-05 -.765E-05 0.119E-04
   0.358E+01 0.624E-01 -.271E+00   -.354E+01 0.213E+00 -.134E+00   0.118E+01 0.586E+00 -.110E+01   -.203E-04 -.108E-04 -.128E-05
 -----------------------------------------------------------------------------------------------
   -.786E+00 -.673E+00 0.125E+01   0.355E-14 -.533E-14 0.000E+00   0.787E+00 0.674E+00 -.125E+01   -.237E-04 -.118E-04 -.374E-05


 POSITION                                       TOTAL-FORCE (eV/Angst)
 -----------------------------------------------------------------------------------
      5.45907      3.65670      4.76607         0.213880     -1.164532      0.649386
      5.07161      5.28809      5.33079         0.164843      0.533476      0.836404
      3.92170      4.44493      4.32738        -0.965436     -0.287819     -0.324432
      5.52394      4.94179      3.65987        -0.631625      0.057533      0.341909
      4.95562      4.56729      4.55094         1.218339      0.861342     -1.503265
 -----------------------------------------------------------------------------------
    total drift:                                0.000136      0.000483     -0.000533


--------------------------------------------------------------------------------------------------------



  FREE ENERGIE OF THE ION-ELECTRON SYSTEM (eV)
  ---------------------------------------------------
  free  energy   TOTEN  =       -23.92928065 eV

  energy  without entropy=      -23.92928065  energy(sigma->0) =      -23.92928065



--------------------------------------------------------------------------------------------------------


    POTLOK:  cpu time    1.6585: real time    1.6624


--------------------------------------------------------------------------------------------------------


     LOOP+:  cpu time   48.1172: real time   48.2365
    4ORBIT:  cpu time    0.0000: real time    0.0000

 total amount of memory used by VASP MPI-rank0   274719. kBytes
=======================================================================

   base      :      30000. kBytes
   nonlr-proj:       1207. kBytes
   fftplans  :      86584. kBytes
   grid      :     154542. kBytes
   one-center:         15. kBytes
   wavefun   :       2371. kBytes

  
  
 General timing and accounting informations for this job:
 ========================================================
  
                  Total CPU time used (sec):       49.806
                            User time (sec):       48.265
                          System time (sec):        1.542
                         Elapsed time (sec):       49.981
  
                   Maximum memory used (kb):      391944.
                   Average memory used (kb):           0.
  
                          Minor page faults:       183316
                          Major page faults:            0
                 Voluntary context switches:          147
