1.000661949999999933e+01 0.000000000000000000e+00 0.000000000000000000e+00 -2.212445000000000106e-01 9.741885200000000467e+00 0.000000000000000000e+00 -8.207299999999999318e-02 2.414281000000000066e-01 1.022162630000000050e+01
1.000661949999999933e+01 0.000000000000000000e+00 0.000000000000000000e+00 -2.212445000000000106e-01 9.741885200000000467e+00 0.000000000000000000e+00 -8.207299999999999318e-02 2.414281000000000066e-01 1.022162630000000050e+01
1.000661949999999933e+01 0.000000000000000000e+00 0.000000000000000000e+00 -2.212445000000000106e-01 9.741885200000000467e+00 0.000000000000000000e+00 -8.207299999999999318e-02 2.414281000000000066e-01 1.022162630000000050e+01
1.000661949999999933e+01 0.000000000000000000e+00 0.000000000000000000e+00 -2.212445000000000106e-01 9.741885200000000467e+00 0.000000000000000000e+00 -8.207299999999999318e-02 2.414281000000000066e-01 1.022162630000000050e+01
1.026957510000000084e+01 0.000000000000000000e+00 0.000000000000000000e+00 -2.556599999999999984e-01 9.882867799999999647e+00 0.000000000000000000e+00 1.129904000000000047e-01 -1.480189000000000088e-01 9.809640899999999775e+00
1.028304009999999913e+01 0.000000000000000000e+00 0.000000000000000000e+00 -1.512127000000000054e-01 1.010313700000000026e+01 0.000000000000000000e+00 4.542050000000000254e-02 4.479389999999999761e-02 1.004537769999999952e+01
9.888298999999999950e+00 0.000000000000000000e+00 0.000000000000000000e+00 2.133294000000000024e-01 1.009079840000000061e+01 0.000000000000000000e+00 5.273560000000000053e-02 7.943719999999999948e-02 1.022749330000000079e+01
1.000661949999999933e+01 0.000000000000000000e+00 0.000000000000000000e+00 -2.212445000000000106e-01 9.741885200000000467e+00 0.000000000000000000e+00 -8.207299999999999318e-02 2.414281000000000066e-01 1.022162630000000050e+01
1.025106150000000049e+01 0.000000000000000000e+00 0.000000000000000000e+00 -2.045251999999999903e-01 9.727113700000000307e+00 0.000000000000000000e+00 -1.997758000000000034e-01 3.360849999999999949e-02 1.022615150000000028e+01
1.028304009999999913e+01 0.000000000000000000e+00 0.000000000000000000e+00 -1.512127000000000054e-01 1.010313700000000026e+01 0.000000000000000000e+00 4.542050000000000254e-02 4.479389999999999761e-02 1.004537769999999952e+01
1.000661949999999933e+01 0.000000000000000000e+00 0.000000000000000000e+00 -2.212445000000000106e-01 9.741885200000000467e+00 0.000000000000000000e+00 -8.207299999999999318e-02 2.414281000000000066e-01 1.022162630000000050e+01
1.000661949999999933e+01 0.000000000000000000e+00 0.000000000000000000e+00 -2.212445000000000106e-01 9.741885200000000467e+00 0.000000000000000000e+00 -8.207299999999999318e-02 2.414281000000000066e-01 1.022162630000000050e+01
1.000661949999999933e+01 0.000000000000000000e+00 0.000000000000000000e+00 -2.212445000000000106e-01 9.741885200000000467e+00 0.000000000000000000e+00 -8.207299999999999318e-02 2.414281000000000066e-01 1.022162630000000050e+01
1.018952849999999977e+01 0.000000000000000000e+00 0.000000000000000000e+00 3.442640000000000283e-02 9.954976200000000830e+00 0.000000000000000000e+00 -9.444900000000000864e-03 8.552700000000000580e-02 9.874857999999999691e+00
1.018952849999999977e+01 0.000000000000000000e+00 0.000000000000000000e+00 3.442640000000000283e-02 9.954976200000000830e+00 0.000000000000000000e+00 -9.444900000000000864e-03 8.552700000000000580e-02 9.874857999999999691e+00
1.000661949999999933e+01 0.000000000000000000e+00 0.000000000000000000e+00 -2.212445000000000106e-01 9.741885200000000467e+00 0.000000000000000000e+00 -8.207299999999999318e-02 2.414281000000000066e-01 1.022162630000000050e+01
1.018952849999999977e+01 0.000000000000000000e+00 0.000000000000000000e+00 3.442640000000000283e-02 9.954976200000000830e+00 0.000000000000000000e+00 -9.444900000000000864e-03 8.552700000000000580e-02 9.874857999999999691e+00
1.025106150000000049e+01 0.000000000000000000e+00 0.000000000000000000e+00 -2.045251999999999903e-01 9.727113700000000307e+00 0.000000000000000000e+00 -1.997758000000000034e-01 3.360849999999999949e-02 1.022615150000000028e+01
1.026957510000000084e+01 0.000000000000000000e+00 0.000000000000000000e+00 -2.556599999999999984e-01 9.882867799999999647e+00 0.000000000000000000e+00 1.129904000000000047e-01 -1.480189000000000088e-01 9.809640899999999775e+00
