ITEM: TIMESTEP
1290
ITEM: NUMBER OF ATOMS
5
ITEM: BOX BOUNDS xy xz yz pp pp pp
0.0000000000000000e+00 1.0110483900000000e+01 3.5196100000000001e-02
0.0000000000000000e+00 1.0363776000000000e+01 5.8855999999999999e-02
0.0000000000000000e+00 9.9877471999999994e+00 2.2433829999999999e-01
ITEM: ATOMS id type x y z 
1 1 5.12023 5.18117 5.44588 
2 1 5.6327 3.89328 4.3092 
3 1 5.47074 5.62615 3.76227 
4 1 4.0411 4.70011 4.12059 
5 2 5.07567 4.85313 4.44081 
