ITEM: TIMESTEP
2120
ITEM: NUMBER OF ATOMS
5
ITEM: BOX BOUNDS xy xz yz pp pp pp
0.0000000000000000e+00 1.0110483900000000e+01 3.5196100000000001e-02
0.0000000000000000e+00 1.0363776000000000e+01 5.8855999999999999e-02
0.0000000000000000e+00 9.9877471999999994e+00 2.2433829999999999e-01
ITEM: ATOMS id type x y z 
1 1 4.69432 5.38811 5.26217 
2 1 5.74391 4.08023 4.84885 
3 1 5.64345 5.54168 3.80839 
4 1 4.27332 4.36466 3.85585 
5 2 5.06815 4.8553 4.42936 
