ITEM: TIMESTEP
2510
ITEM: NUMBER OF ATOMS
5
ITEM: BOX BOUNDS xy xz yz pp pp pp
0.0000000000000000e+00 1.0110483900000000e+01 3.5196100000000001e-02
0.0000000000000000e+00 1.0363776000000000e+01 5.8855999999999999e-02
0.0000000000000000e+00 9.9877471999999994e+00 2.2433829999999999e-01
ITEM: ATOMS id type x y z 
1 1 5.49334 4.8727 5.4177 
2 1 5.43393 3.94731 3.90357 
3 1 5.40497 5.77252 3.87417 
4 1 3.9647 4.8988 4.51698 
5 2 5.07299 4.84558 4.4346 
