ITEM: TIMESTEP
280
ITEM: NUMBER OF ATOMS
5
ITEM: BOX BOUNDS xy xz yz pp pp pp
0.0000000000000000e+00 1.0110483900000000e+01 3.5196100000000001e-02
0.0000000000000000e+00 1.0363776000000000e+01 5.8855999999999999e-02
0.0000000000000000e+00 9.9877471999999994e+00 2.2433829999999999e-01
ITEM: ATOMS id type x y z 
1 1 5.95326 4.24075 4.37653 
2 1 4.29561 4.50474 3.70265 
3 1 5.41373 5.88838 4.22129 
4 1 4.64152 4.81799 5.47925 
5 2 5.07239 4.84886 4.42899 
