ITEM: TIMESTEP
2890
ITEM: NUMBER OF ATOMS
5
ITEM: BOX BOUNDS xy xz yz pp pp pp
0.0000000000000000e+00 1.0110483900000000e+01 3.5196100000000001e-02
0.0000000000000000e+00 1.0363776000000000e+01 5.8855999999999999e-02
0.0000000000000000e+00 9.9877471999999994e+00 2.2433829999999999e-01
ITEM: ATOMS id type x y z 
1 1 5.99433 4.35743 4.77989 
2 1 4.6536 4.25409 3.57866 
3 1 5.35926 5.84791 4.07166 
4 1 4.32362 4.95698 5.26545 
5 2 5.07017 4.85182 4.436 
