ITEM: TIMESTEP
990
ITEM: NUMBER OF ATOMS
5
ITEM: BOX BOUNDS xy xz yz pp pp pp
0.0000000000000000e+00 1.0110483900000000e+01 3.5196100000000001e-02
0.0000000000000000e+00 1.0363776000000000e+01 5.8855999999999999e-02
0.0000000000000000e+00 9.9877471999999994e+00 2.2433829999999999e-01
ITEM: ATOMS id type x y z 
1 1 5.97434 4.25121 4.3642 
2 1 4.34224 4.48444 3.67192 
3 1 5.41381 5.90408 4.2586 
4 1 4.64986 4.78309 5.48419 
5 2 5.06605 4.85128 4.42906 
