 vasp.5.4.4.18Apr17-6-g9f103f2a35 (build Jul 12 2018 13:43:46) complex           
 executed on             LinuxGNU date 2019.06.25  21:09:30
 running on    1 total cores
 distrk:  each k-point on    1 cores,    1 groups
 distr:  one band on NCORES_PER_BAND=   1 cores,    1 groups


--------------------------------------------------------------------------------------------------------


 INCAR:
 POTCAR:    PAW_PBE H 15Jun2001                   
 POTCAR:    PAW_PBE C 08Apr2002                   
 POTCAR:    PAW_PBE H 15Jun2001                   
   VRHFIN =H: ultrasoft test                                                    
   LEXCH  = PE                                                                  
   EATOM  =    12.4884 eV,    0.9179 Ry                                         
                                                                                
   TITEL  = PAW_PBE H 15Jun2001                                                 
   LULTRA =        F    use ultrasoft PP ?                                      
   IUNSCR =        0    unscreen: 0-lin 1-nonlin 2-no                           
   RPACOR =    0.000    partial core radius                                     
   POMASS =    1.000; ZVAL   =    1.000    mass and valenz                      
   RCORE  =    1.100    outmost cutoff radius                                   
   RWIGS  =    0.700; RWIGS  =    0.370    wigner-seitz radius (au A)           
   ENMAX  =  250.000; ENMIN  =  200.000 eV                                      
   RCLOC  =    0.701    cutoff for local pot                                    
   LCOR   =        T    correct aug charges                                     
   LPAW   =        T    paw PP                                                  
   EAUG   =  400.000                                                            
   RMAX   =    1.123    core radius for proj-oper                               
   RAUG   =    1.200    factor for augmentation sphere                          
   RDEP   =    1.112    radius for radial grids                                 
   RDEPT  =    0.926    core radius for aug-charge                              
                                                                                
   Atomic configuration                                                         
    2 entries                                                                   
     n  l   j            E        occ.                                          
     1  0  0.50        -6.4927   1.0000                                         
     2  1  0.50        -3.4015   0.0000                                         
   Description                                                                  
     l       E           TYP  RCUT    TYP  RCUT                                 
     0     -6.4927494     23  1.100                                             
     0      6.8029130     23  1.100                                             
     1     -4.0817478     23  1.100                                             
  local pseudopotential read in
  atomic valenz-charges read in
  non local Contribution for L=           0  read in
    real space projection operators read in
  non local Contribution for L=           0  read in
    real space projection operators read in
  non local Contribution for L=           1  read in
    real space projection operators read in
    PAW grid and wavefunctions read in

   number of l-projection  operators is LMAX  =           3
   number of lm-projection operators is LMMAX =           5

 POTCAR:    PAW_PBE C 08Apr2002                   
   VRHFIN =C: s2p2                                                              
   LEXCH  = PE                                                                  
   EATOM  =   147.1560 eV,   10.8157 Ry                                         
                                                                                
   TITEL  = PAW_PBE C 08Apr2002                                                 
   LULTRA =        F    use ultrasoft PP ?                                      
   IUNSCR =        1    unscreen: 0-lin 1-nonlin 2-no                           
   RPACOR =    1.200    partial core radius                                     
   POMASS =   12.011; ZVAL   =    4.000    mass and valenz                      
   RCORE  =    1.500    outmost cutoff radius                                   
   RWIGS  =    1.630; RWIGS  =    0.863    wigner-seitz radius (au A)           
   ENMAX  =  400.000; ENMIN  =  300.000 eV                                      
   ICORE  =        2    local potential                                         
   LCOR   =        T    correct aug charges                                     
   LPAW   =        T    paw PP                                                  
   EAUG   =  644.873                                                            
   DEXC   =    0.000                                                            
   RMAX   =    1.529    core radius for proj-oper                               
   RAUG   =    1.300    factor for augmentation sphere                          
   RDEP   =    1.501    radius for radial grids                                 
   RDEPT  =    1.300    core radius for aug-charge                              
                                                                                
   Atomic configuration                                                         
    4 entries                                                                   
     n  l   j            E        occ.                                          
     1  0  0.50      -273.3789   2.0000                                         
     2  0  0.50       -13.7508   2.0000                                         
     2  1  0.50        -5.2854   2.0000                                         
     3  2  1.50        -5.4423   0.0000                                         
   Description                                                                  
     l       E           TYP  RCUT    TYP  RCUT                                 
     0    -13.7508458     23  1.200                                             
     0     -8.2022199     23  1.200                                             
     1     -5.2854383     23  1.500                                             
     1     34.0145650     23  1.500                                             
     2     -5.4423304      7  1.500                                             
  local pseudopotential read in
  partial core-charges read in
  partial kinetic energy density read in
  atomic valenz-charges read in
  non local Contribution for L=           0  read in
    real space projection operators read in
  non local Contribution for L=           0  read in
    real space projection operators read in
  non local Contribution for L=           1  read in
    real space projection operators read in
  non local Contribution for L=           1  read in
    real space projection operators read in
    PAW grid and wavefunctions read in

   number of l-projection  operators is LMAX  =           4
   number of lm-projection operators is LMMAX =           8


 ----------------------------------------------------------------------------- 
|                                                                             |
|  ADVICE TO THIS USER RUNNING 'VASP/VAMP'   (HEAR YOUR MASTER'S VOICE ...):  |
|                                                                             |
|      You have a (more or less) 'small supercell' and for smaller cells      |
|      it is recommended  to use the reciprocal-space projection scheme!      |
|      The real space optimization is not  efficient for small cells and it   |
|      is also less accurate ...                                              |
|      Therefore set LREAL=.FALSE. in the  INCAR file                         |
|                                                                             |
 ----------------------------------------------------------------------------- 

 Optimization of the real space projectors (new method)

 maximal supplied QI-value         = 34.20
 optimisation between [QCUT,QGAM] = [  9.92, 20.18] = [ 27.55,114.04] Ry 
 Optimized for a Real-space Cutoff    1.34 Angstroem

   l    n(q)    QCUT    max X(q) W(low)/X(q) W(high)/X(q)  e(spline) 
   0      8     9.919    19.460    0.16E-03    0.20E-03    0.36E-06
   0      8     9.919    12.209    0.16E-03    0.20E-03    0.35E-06
   1      8     9.919     4.655    0.19E-03    0.46E-03    0.40E-06
 Optimization of the real space projectors (new method)

 maximal supplied QI-value         = 25.13
 optimisation between [QCUT,QGAM] = [ 10.05, 20.36] = [ 28.30,116.06] Ry 
 Optimized for a Real-space Cutoff    1.51 Angstroem

   l    n(q)    QCUT    max X(q) W(low)/X(q) W(high)/X(q)  e(spline) 
   0      9    10.053   115.676    0.19E-03    0.21E-03    0.38E-06
   0      9    10.053    87.132    0.19E-03    0.21E-03    0.38E-06
   1      9    10.053     4.429    0.87E-04    0.11E-03    0.39E-06
   1      9    10.053     2.733    0.59E-04    0.62E-04    0.43E-06
  PAW_PBE H 15Jun2001                   :
 energy of atom  1       EATOM=  -12.4884
 kinetic energy error for atom=    0.0098 (will be added to EATOM!!)
  PAW_PBE C 08Apr2002                   :
 energy of atom  2       EATOM= -147.1560
 kinetic energy error for atom=    0.0288 (will be added to EATOM!!)


 POSCAR: POSCAR file written by OVITO            
  positions in cartesian coordinates
  No initial velocities read in
 exchange correlation table for  LEXCH =        8
   RHO(1)=    0.500       N(1)  =     2000
   RHO(2)=  100.500       N(2)  =     4000



--------------------------------------------------------------------------------------------------------


 ion  position               nearest neighbor table
   1  0.530  0.386  0.516-   5 1.12
   2  0.536  0.565  0.484-   5 1.08
   3  0.397  0.462  0.428-   5 1.09
   4  0.549  0.444  0.344-   5 1.14
   5  0.502  0.470  0.445-   2 1.08   3 1.09   1 1.12   4 1.14


IMPORTANT INFORMATION: All symmetrisations will be switched off!
NOSYMM: (Re-)initialisation of all symmetry stuff for point group C_1.




Automatic generation of k-mesh.
 generate k-points for:    1    1    1
Space group operators:
 irot       det(A)        alpha          n_x          n_y          n_z        tau_x        tau_y        tau_z
    1     1.000000     0.000000     1.000000     0.000000     0.000000     0.000000     0.000000     0.000000
 
 Subroutine IBZKPT returns following result:
 ===========================================
 
 Found      1 irreducible k-points:
 
 Following reciprocal coordinates:
            Coordinates               Weight
  0.000000  0.000000  0.000000      1.000000
 
 Following cartesian coordinates:
            Coordinates               Weight
  0.000000  0.000000  0.000000      1.000000
 


--------------------------------------------------------------------------------------------------------




 Dimension of arrays:
   k-points           NKPTS =      1   k-points in BZ     NKDIM =      1   number of bands    NBANDS=      8
   number of dos      NEDOS =    301   number of ions     NIONS =      5
   non local maximal  LDIM  =      4   non local SUM 2l+1 LMDIM =      8
   total plane-waves  NPLWV = 313600
   max r-space proj   IRMAX =   4552   max aug-charges    IRDMAX=   3894
   dimension x,y,z NGX =    70 NGY =   70 NGZ =   64
   dimension x,y,z NGXF=   140 NGYF=  140 NGZF=  128
   support grid    NGXF=   140 NGYF=  140 NGZF=  128
   ions per type =               4   1
   NGX,Y,Z   is equivalent  to a cutoff of  11.42, 11.69, 10.77 a.u.
   NGXF,Y,Z  is equivalent  to a cutoff of  22.84, 23.38, 21.55 a.u.

 SYSTEM =  unknown system                          
 POSCAR =  POSCAR file written by OVITO            

 Startparameter for this run:
   NWRITE =      2    write-flag & timer
   PREC   = a         normal or accurate (medium, high low for compatibility)
   ISTART =      0    job   : 0-new  1-cont  2-samecut
   ICHARG =      2    charge: 1-file 2-atom 10-const
   ISPIN  =      1    spin polarized calculation?
   LNONCOLLINEAR =      F non collinear calculations
   LSORBIT =      F    spin-orbit coupling
   INIWAV =      1    electr: 0-lowe 1-rand  2-diag
   LASPH  =      F    aspherical Exc in radial PAW
   METAGGA=      F    non-selfconsistent MetaGGA calc.

 Electronic Relaxation 1
   ENCUT  =  400.0 eV  29.40 Ry    5.42 a.u.  16.62 16.23 16.10*2*pi/ulx,y,z
   ENINI  =  400.0     initial cutoff
   ENAUG  =  644.9 eV  augmentation charge cutoff
   NELM   =    120;   NELMIN=  4; NELMDL= -5     # of ELM steps 
   EDIFF  = 0.1E-05   stopping-criterion for ELM
   LREAL  =      T    real-space projection
   NLSPLINE    = F    spline interpolate recip. space projectors
   LCOMPAT=      F    compatible to vasp.4.4
   GGA_COMPAT  = T    GGA compatible to vasp.4.4-vasp.4.6
   LMAXPAW     = -100 max onsite density
   LMAXMIX     =    2 max onsite mixed and CHGCAR
   VOSKOWN=      0    Vosko Wilk Nusair interpolation
   ROPT   =   -0.00025  -0.00025
 Ionic relaxation
   EDIFFG = 0.1E-04   stopping-criterion for IOM
   NSW    =      0    number of steps for IOM
   NBLOCK =      1;   KBLOCK =      1    inner block; outer block 
   IBRION =     -1    ionic relax: 0-MD 1-quasi-New 2-CG
   NFREE  =      0    steps in history (QN), initial steepest desc. (CG)
   ISIF   =      2    stress and relaxation
   IWAVPR =     10    prediction:  0-non 1-charg 2-wave 3-comb
   ISYM   =      0    0-nonsym 1-usesym 2-fastsym
   LCORR  =      T    Harris-Foulkes like correction to forces

   POTIM  = 0.5000    time-step for ionic-motion
   TEIN   =    0.0    initial temperature
   TEBEG  =    0.0;   TEEND  =   0.0 temperature during run
   SMASS  =  -3.00    Nose mass-parameter (am)
   estimated Nose-frequenzy (Omega)   =  0.10E-29 period in steps =****** mass=  -0.237E-26a.u.
   SCALEE = 1.0000    scale energy and forces
   NPACO  =    256;   APACO  = 16.0  distance and # of slots for P.C.
   PSTRESS=    0.0 pullay stress

  Mass of Ions in am
   POMASS =   1.00 12.01
  Ionic Valenz
   ZVAL   =   1.00  4.00
  Atomic Wigner-Seitz radii
   RWIGS  =  -1.00 -1.00
  virtual crystal weights 
   VCA    =   1.00  1.00
   NELECT =       8.0000    total number of electrons
   NUPDOWN=      -1.0000    fix difference up-down

 DOS related values:
   EMIN   =  10.00;   EMAX   =-10.00  energy-range for DOS
   EFERMI =   0.00
   ISMEAR =     0;   SIGMA  =   0.05  broadening in eV -4-tet -1-fermi 0-gaus

 Electronic relaxation 2 (details)
   IALGO  =     38    algorithm
   LDIAG  =      T    sub-space diagonalisation (order eigenvalues)
   LSUBROT=      F    optimize rotation matrix (better conditioning)
   TURBO    =      0    0=normal 1=particle mesh
   IRESTART =      0    0=no restart 2=restart with 2 vectors
   NREBOOT  =      0    no. of reboots
   NMIN     =      0    reboot dimension
   EREF     =   0.00    reference energy to select bands
   IMIX   =      4    mixing-type and parameters
     AMIX     =   0.40;   BMIX     =  1.00
     AMIX_MAG =   1.60;   BMIX_MAG =  1.00
     AMIN     =   0.10
     WC   =   100.;   INIMIX=   1;  MIXPRE=   1;  MAXMIX= -45

 Intra band minimization:
   WEIMIN = 0.0000     energy-eigenvalue tresh-hold
   EBREAK =  0.31E-07  absolut break condition
   DEPER  =   0.30     relativ break condition  

   TIME   =   0.40     timestep for ELM

  volume/ion in A,a.u.               =     200.33      1351.92
  Fermi-wavevector in a.u.,A,eV,Ry     =   0.327238  0.618389  1.456972  0.107084
  Thomas-Fermi vector in A             =   1.219791

 Write flags
   LWAVE        =      F    write WAVECAR
   LDOWNSAMPLE  =      F    k-point downsampling of WAVECAR
   LCHARG       =      F    write CHGCAR
   LVTOT        =      F    write LOCPOT, total local potential
   LVHAR        =      F    write LOCPOT, Hartree potential only
   LELF         =      F    write electronic localiz. function (ELF)
   LORBIT       =      0    0 simple, 1 ext, 2 COOP (PROOUT), +10 PAW based schemes


 Dipole corrections
   LMONO  =      F    monopole corrections only (constant potential shift)
   LDIPOL =      F    correct potential (dipole corrections)
   IDIPOL =      0    1-x, 2-y, 3-z, 4-all directions 
   EPSILON=  1.0000000 bulk dielectric constant

 Exchange correlation treatment:
   GGA     =    --    GGA type
   LEXCH   =     8    internal setting for exchange type
   VOSKOWN=      0    Vosko Wilk Nusair interpolation
   LHFCALC =     F    Hartree Fock is set to
   LHFONE  =     F    Hartree Fock one center treatment
   AEXX    =    0.0000 exact exchange contribution

 Linear response parameters
   LEPSILON=     F    determine dielectric tensor
   LRPA    =     F    only Hartree local field effects (RPA)
   LNABLA  =     F    use nabla operator in PAW spheres
   LVEL    =     F    velocity operator in full k-point grid
   LINTERFAST=   F  fast interpolation
   KINTER  =     0    interpolate to denser k-point grid
   CSHIFT  =0.1000    complex shift for real part using Kramers Kronig
   OMEGAMAX=  -1.0    maximum frequency
   DEG_THRESHOLD= 0.2000000E-02 threshold for treating states as degnerate
   RTIME   =   -0.100 relaxation time in fs
  (WPLASMAI=    0.000 imaginary part of plasma frequency in eV, 0.658/RTIME)
   DFIELD  = 0.0000000 0.0000000 0.0000000 field for delta impulse in time

 Orbital magnetization related:
   ORBITALMAG=     F  switch on orbital magnetization
   LCHIMAG   =     F  perturbation theory with respect to B field
   DQ        =  0.001000  dq finite difference perturbation B field
   LLRAUG    =     F  two centre corrections for induced B field



--------------------------------------------------------------------------------------------------------


 Static calculation
 charge density and potential will be updated during run
 non-spin polarized calculation
 Variant of blocked Davidson
 Davidson routine will perform the subspace rotation
 perform sub-space diagonalisation
    after iterative eigenvector-optimisation
 modified Broyden-mixing scheme, WC =      100.0
 initial mixing is a Kerker type mixing with AMIX =  0.4000 and BMIX =      1.0000
 Hartree-type preconditioning will be used
 using additional bands            4
 real space projection scheme for non local part
 use partial core corrections
 calculate Harris-corrections to forces   (improved forces if not selfconsistent)
 use gradient corrections 
 use of overlap-Matrix (Vanderbilt PP)
 Gauss-broadening in eV      SIGMA  =   0.05


--------------------------------------------------------------------------------------------------------


  energy-cutoff  :      400.00
  volume of cell :     1001.67
      direct lattice vectors                 reciprocal lattice vectors
    10.189528500  0.000000000  0.000000000     0.098139968 -0.000339389  0.000096806
     0.034426400  9.954976200  0.000000000     0.000000000  0.100452274 -0.000870026
    -0.009444900  0.085527000  9.874858000     0.000000000  0.000000000  0.101267279

  length of vectors
    10.189528500  9.955035727  9.875232888     0.098140602  0.100456042  0.101267279



 k-points in units of 2pi/SCALE and weight: read from INCAR                         
   0.00000000  0.00000000  0.00000000       1.000

 k-points in reciprocal lattice and weights: read from INCAR                         
   0.00000000  0.00000000  0.00000000       1.000

 position of ions in fractional coordinates (direct lattice) 
   0.52982001  0.38575623  0.51628286
   0.53586332  0.56515351  0.48394418
   0.39654290  0.46156231  0.42826643
   0.54943174  0.44371439  0.34367785
   0.50217017  0.46983535  0.44489247

 position of ions in cartesian coordinates  (Angst):
   5.40702010  3.88435020  5.09821990
   5.47508000  5.66748000  4.77888010
   4.05243020  4.63147020  4.22907020
   5.61047990  4.44655990  3.39377000
   5.12885000  4.71525000  4.39325000



--------------------------------------------------------------------------------------------------------


 k-point  1 :   0.0000 0.0000 0.0000  plane waves:   18171

 maximum and minimum number of plane-waves per node :     18171    18171

 maximum number of plane-waves:     18171
 maximum index in each direction: 
   IXMAX=   16   IYMAX=   16   IZMAX=   16
   IXMIN=  -16   IYMIN=  -16   IZMIN=  -16


 serial   3D FFT for wavefunctions
 parallel 3D FFT for charge:
    minimum data exchange during FFTs selected (reduces bandwidth)


 total amount of memory used by VASP MPI-rank0   274966. kBytes
=======================================================================

   base      :      30000. kBytes
   nonlr-proj:       1231. kBytes
   fftplans  :      86708. kBytes
   grid      :     154683. kBytes
   one-center:         15. kBytes
   wavefun   :       2329. kBytes

     INWAV:  cpu time    0.0000: real time    0.0000
 Broyden mixing: mesh for mixing (old mesh)
   NGX = 33   NGY = 33   NGZ = 33
  (NGX  =140   NGY  =140   NGZ  =128)
  gives a total of  35937 points

 initial charge density was supplied:
 charge density of overlapping atoms calculated
 number of electron       8.0000000 magnetization 
 keeping initial charge density in first step


--------------------------------------------------------------------------------------------------------


 Maximum index for non-local projection operator         4367
 Maximum index for augmentation-charges         3577 (set IRDMAX)


--------------------------------------------------------------------------------------------------------


 First call to EWALD:  gamma=   0.177
 Maximum number of real-space cells 3x 3x 3
 Maximum number of reciprocal cells 3x 3x 3

    FEWALD:  cpu time    0.0007: real time    0.0007


--------------------------------------- Iteration      1(   1)  ---------------------------------------


    POTLOK:  cpu time    1.5874: real time    1.5914
    SETDIJ:  cpu time    0.0067: real time    0.0067
     EDDAV:  cpu time    0.4077: real time    0.4087
       DOS:  cpu time    0.0002: real time    0.0002
    --------------------------------------------
      LOOP:  cpu time    2.0020: real time    2.0070

 eigenvalue-minimisations  :    16
 total energy-change (2. order) : 0.5415694E+02  (-0.1427686E+03)
 number of electron       8.0000000 magnetization 
 augmentation part        8.0000000 magnetization 

 Free energy of the ion-electron system (eV)
  ---------------------------------------------------
  alpha Z        PSCENC =         0.24184663
  Ewald energy   TEWEN  =       125.82467867
  -Hartree energ DENC   =      -242.52090751
  -exchange      EXHF   =         0.00000000
  -V(xc)+E(xc)   XCENC  =        21.93691602
  PAW double counting   =       117.05815612     -117.66307307
  entropy T*S    EENTRO =        -0.00000000
  eigenvalues    EBANDS =       -47.76242716
  atomic energy  EATOM  =       197.04175453
  Solvation  Ediel_sol  =         0.00000000
  ---------------------------------------------------
  free energy    TOTEN  =        54.15694422 eV

  energy without entropy =       54.15694422  energy(sigma->0) =       54.15694422


--------------------------------------------------------------------------------------------------------




--------------------------------------- Iteration      1(   2)  ---------------------------------------


     EDDAV:  cpu time    0.5529: real time    0.5543
       DOS:  cpu time    0.0001: real time    0.0001
    --------------------------------------------
      LOOP:  cpu time    0.5530: real time    0.5544

 eigenvalue-minimisations  :    24
 total energy-change (2. order) :-0.6476177E+02  (-0.6476177E+02)
 number of electron       8.0000000 magnetization 
 augmentation part        8.0000000 magnetization 

 Free energy of the ion-electron system (eV)
  ---------------------------------------------------
  alpha Z        PSCENC =         0.24184663
  Ewald energy   TEWEN  =       125.82467867
  -Hartree energ DENC   =      -242.52090751
  -exchange      EXHF   =         0.00000000
  -V(xc)+E(xc)   XCENC  =        21.93691602
  PAW double counting   =       117.05815612     -117.66307307
  entropy T*S    EENTRO =        -0.00000000
  eigenvalues    EBANDS =      -112.52419573
  atomic energy  EATOM  =       197.04175453
  Solvation  Ediel_sol  =         0.00000000
  ---------------------------------------------------
  free energy    TOTEN  =       -10.60482436 eV

  energy without entropy =      -10.60482436  energy(sigma->0) =      -10.60482436


--------------------------------------------------------------------------------------------------------




--------------------------------------- Iteration      1(   3)  ---------------------------------------


     EDDAV:  cpu time    0.4104: real time    0.4114
       DOS:  cpu time    0.0001: real time    0.0001
    --------------------------------------------
      LOOP:  cpu time    0.4106: real time    0.4115

 eigenvalue-minimisations  :    16
 total energy-change (2. order) :-0.1579257E+02  (-0.1579257E+02)
 number of electron       8.0000000 magnetization 
 augmentation part        8.0000000 magnetization 

 Free energy of the ion-electron system (eV)
  ---------------------------------------------------
  alpha Z        PSCENC =         0.24184663
  Ewald energy   TEWEN  =       125.82467867
  -Hartree energ DENC   =      -242.52090751
  -exchange      EXHF   =         0.00000000
  -V(xc)+E(xc)   XCENC  =        21.93691602
  PAW double counting   =       117.05815612     -117.66307307
  entropy T*S    EENTRO =        -0.00000000
  eigenvalues    EBANDS =      -128.31676795
  atomic energy  EATOM  =       197.04175453
  Solvation  Ediel_sol  =         0.00000000
  ---------------------------------------------------
  free energy    TOTEN  =       -26.39739657 eV

  energy without entropy =      -26.39739657  energy(sigma->0) =      -26.39739657


--------------------------------------------------------------------------------------------------------




--------------------------------------- Iteration      1(   4)  ---------------------------------------


     EDDAV:  cpu time    0.7384: real time    0.7401
       DOS:  cpu time    0.0001: real time    0.0001
    --------------------------------------------
      LOOP:  cpu time    0.7385: real time    0.7402

 eigenvalue-minimisations  :    32
 total energy-change (2. order) :-0.9008239E+00  (-0.9008239E+00)
 number of electron       8.0000000 magnetization 
 augmentation part        8.0000000 magnetization 

 Free energy of the ion-electron system (eV)
  ---------------------------------------------------
  alpha Z        PSCENC =         0.24184663
  Ewald energy   TEWEN  =       125.82467867
  -Hartree energ DENC   =      -242.52090751
  -exchange      EXHF   =         0.00000000
  -V(xc)+E(xc)   XCENC  =        21.93691602
  PAW double counting   =       117.05815612     -117.66307307
  entropy T*S    EENTRO =        -0.00000000
  eigenvalues    EBANDS =      -129.21759181
  atomic energy  EATOM  =       197.04175453
  Solvation  Ediel_sol  =         0.00000000
  ---------------------------------------------------
  free energy    TOTEN  =       -27.29822043 eV

  energy without entropy =      -27.29822043  energy(sigma->0) =      -27.29822043


--------------------------------------------------------------------------------------------------------




--------------------------------------- Iteration      1(   5)  ---------------------------------------


     EDDAV:  cpu time    0.7251: real time    0.7268
       DOS:  cpu time    0.0001: real time    0.0001
    CHARGE:  cpu time    0.0880: real time    0.0882
    MIXING:  cpu time    0.0335: real time    0.0336
    --------------------------------------------
      LOOP:  cpu time    0.8466: real time    0.8486

 eigenvalue-minimisations  :    32
 total energy-change (2. order) :-0.6286461E-03  (-0.6286461E-03)
 number of electron       8.0000000 magnetization 
 augmentation part        0.2204592 magnetization 

 Broyden mixing:
  rms(total) = 0.84833E+00    rms(broyden)= 0.84813E+00
  rms(prec ) = 0.12018E+01
  weight for this iteration     100.00

 Free energy of the ion-electron system (eV)
  ---------------------------------------------------
  alpha Z        PSCENC =         0.24184663
  Ewald energy   TEWEN  =       125.82467867
  -Hartree energ DENC   =      -242.52090751
  -exchange      EXHF   =         0.00000000
  -V(xc)+E(xc)   XCENC  =        21.93691602
  PAW double counting   =       117.05815612     -117.66307307
  entropy T*S    EENTRO =        -0.00000000
  eigenvalues    EBANDS =      -129.21822045
  atomic energy  EATOM  =       197.04175453
  Solvation  Ediel_sol  =         0.00000000
  ---------------------------------------------------
  free energy    TOTEN  =       -27.29884907 eV

  energy without entropy =      -27.29884907  energy(sigma->0) =      -27.29884907


--------------------------------------------------------------------------------------------------------




--------------------------------------- Iteration      1(   6)  ---------------------------------------


    POTLOK:  cpu time    1.6204: real time    1.6242
    SETDIJ:  cpu time    0.0064: real time    0.0064
     EDDAV:  cpu time    0.5764: real time    0.5778
       DOS:  cpu time    0.0001: real time    0.0001
    CHARGE:  cpu time    0.0820: real time    0.0822
    MIXING:  cpu time    0.0344: real time    0.0345
    --------------------------------------------
      LOOP:  cpu time    2.3198: real time    2.3253

 eigenvalue-minimisations  :    24
 total energy-change (2. order) : 0.2734284E+01  (-0.8552271E+00)
 number of electron       7.9999999 magnetization 
 augmentation part        0.1930371 magnetization 

 Broyden mixing:
  rms(total) = 0.43454E+00    rms(broyden)= 0.43445E+00
  rms(prec ) = 0.54467E+00
  weight for this iteration     100.00

 eigenvalues of (default mixing * dielectric matrix)
  average eigenvalue GAMMA=   1.1914
  1.1914

 Free energy of the ion-electron system (eV)
  ---------------------------------------------------
  alpha Z        PSCENC =         0.24184663
  Ewald energy   TEWEN  =       125.82467867
  -Hartree energ DENC   =      -261.72617267
  -exchange      EXHF   =         0.00000000
  -V(xc)+E(xc)   XCENC  =        23.10225256
  PAW double counting   =       234.21082342     -234.98350020
  entropy T*S    EENTRO =        -0.00000000
  eigenvalues    EBANDS =      -108.27624800
  atomic energy  EATOM  =       197.04175453
  Solvation  Ediel_sol  =         0.00000000
  ---------------------------------------------------
  free energy    TOTEN  =       -24.56456507 eV

  energy without entropy =      -24.56456507  energy(sigma->0) =      -24.56456507


--------------------------------------------------------------------------------------------------------




--------------------------------------- Iteration      1(   7)  ---------------------------------------


    POTLOK:  cpu time    1.6274: real time    1.6312
    SETDIJ:  cpu time    0.0065: real time    0.0065
     EDDAV:  cpu time    0.7521: real time    0.7539
       DOS:  cpu time    0.0001: real time    0.0001
    CHARGE:  cpu time    0.0852: real time    0.0854
    MIXING:  cpu time    0.0344: real time    0.0345
    --------------------------------------------
      LOOP:  cpu time    2.5058: real time    2.5117

 eigenvalue-minimisations  :    32
 total energy-change (2. order) : 0.4529407E+00  (-0.6582809E-01)
 number of electron       7.9999999 magnetization 
 augmentation part        0.1850855 magnetization 

 Broyden mixing:
  rms(total) = 0.22368E+00    rms(broyden)= 0.22365E+00
  rms(prec ) = 0.27598E+00
  weight for this iteration     100.00

 eigenvalues of (default mixing * dielectric matrix)
  average eigenvalue GAMMA=   1.6993
  1.2422  2.1565

 Free energy of the ion-electron system (eV)
  ---------------------------------------------------
  alpha Z        PSCENC =         0.24184663
  Ewald energy   TEWEN  =       125.82467867
  -Hartree energ DENC   =      -271.32877895
  -exchange      EXHF   =         0.00000000
  -V(xc)+E(xc)   XCENC  =        23.83011441
  PAW double counting   =       354.12848371     -354.92574417
  entropy T*S    EENTRO =        -0.00000000
  eigenvalues    EBANDS =       -98.92397923
  atomic energy  EATOM  =       197.04175453
  Solvation  Ediel_sol  =         0.00000000
  ---------------------------------------------------
  free energy    TOTEN  =       -24.11162440 eV

  energy without entropy =      -24.11162440  energy(sigma->0) =      -24.11162440


--------------------------------------------------------------------------------------------------------




--------------------------------------- Iteration      1(   8)  ---------------------------------------


    POTLOK:  cpu time    1.6312: real time    1.6351
    SETDIJ:  cpu time    0.0064: real time    0.0064
     EDDAV:  cpu time    0.5843: real time    0.5857
       DOS:  cpu time    0.0001: real time    0.0001
    CHARGE:  cpu time    0.0854: real time    0.0856
    MIXING:  cpu time    0.0350: real time    0.0350
    --------------------------------------------
      LOOP:  cpu time    2.3424: real time    2.3480

 eigenvalue-minimisations  :    24
 total energy-change (2. order) : 0.1615029E+00  (-0.1842052E-01)
 number of electron       7.9999999 magnetization 
 augmentation part        0.1825894 magnetization 

 Broyden mixing:
  rms(total) = 0.26971E-01    rms(broyden)= 0.26947E-01
  rms(prec ) = 0.54593E-01
  weight for this iteration     100.00

 eigenvalues of (default mixing * dielectric matrix)
  average eigenvalue GAMMA=   1.5314
  2.1528  1.0973  1.3442

 Free energy of the ion-electron system (eV)
  ---------------------------------------------------
  alpha Z        PSCENC =         0.24184663
  Ewald energy   TEWEN  =       125.82467867
  -Hartree energ DENC   =      -278.27983403
  -exchange      EXHF   =         0.00000000
  -V(xc)+E(xc)   XCENC  =        24.45330613
  PAW double counting   =       461.88098160     -462.66328121
  entropy T*S    EENTRO =        -0.00000000
  eigenvalues    EBANDS =       -92.44957380
  atomic energy  EATOM  =       197.04175453
  Solvation  Ediel_sol  =         0.00000000
  ---------------------------------------------------
  free energy    TOTEN  =       -23.95012148 eV

  energy without entropy =      -23.95012148  energy(sigma->0) =      -23.95012148


--------------------------------------------------------------------------------------------------------




--------------------------------------- Iteration      1(   9)  ---------------------------------------


    POTLOK:  cpu time    1.6235: real time    1.6274
    SETDIJ:  cpu time    0.0065: real time    0.0065
     EDDAV:  cpu time    0.7520: real time    0.7538
       DOS:  cpu time    0.0001: real time    0.0001
    CHARGE:  cpu time    0.0866: real time    0.0868
    MIXING:  cpu time    0.0365: real time    0.0366
    --------------------------------------------
      LOOP:  cpu time    2.5052: real time    2.5112

 eigenvalue-minimisations  :    32
 total energy-change (2. order) : 0.6005642E-02  (-0.3235175E-03)
 number of electron       7.9999999 magnetization 
 augmentation part        0.1820540 magnetization 

 Broyden mixing:
  rms(total) = 0.16658E-01    rms(broyden)= 0.16655E-01
  rms(prec ) = 0.37242E-01
  weight for this iteration     100.00

 eigenvalues of (default mixing * dielectric matrix)
  average eigenvalue GAMMA=   1.8978
  2.9713  2.4607  1.1852  0.9740

 Free energy of the ion-electron system (eV)
  ---------------------------------------------------
  alpha Z        PSCENC =         0.24184663
  Ewald energy   TEWEN  =       125.82467867
  -Hartree energ DENC   =      -279.47707138
  -exchange      EXHF   =         0.00000000
  -V(xc)+E(xc)   XCENC  =        24.51442072
  PAW double counting   =       458.46170095     -459.24249078
  entropy T*S    EENTRO =        -0.00000000
  eigenvalues    EBANDS =       -91.30895518
  atomic energy  EATOM  =       197.04175453
  Solvation  Ediel_sol  =         0.00000000
  ---------------------------------------------------
  free energy    TOTEN  =       -23.94411584 eV

  energy without entropy =      -23.94411584  energy(sigma->0) =      -23.94411584


--------------------------------------------------------------------------------------------------------




--------------------------------------- Iteration      1(  10)  ---------------------------------------


    POTLOK:  cpu time    1.5486: real time    1.5523
    SETDIJ:  cpu time    0.0064: real time    0.0064
     EDDAV:  cpu time    0.4180: real time    0.4190
       DOS:  cpu time    0.0001: real time    0.0001
    CHARGE:  cpu time    0.0886: real time    0.0888
    MIXING:  cpu time    0.0367: real time    0.0368
    --------------------------------------------
      LOOP:  cpu time    2.0984: real time    2.1034

 eigenvalue-minimisations  :    16
 total energy-change (2. order) : 0.9063932E-02  (-0.5861083E-03)
 number of electron       7.9999999 magnetization 
 augmentation part        0.1818484 magnetization 

 Broyden mixing:
  rms(total) = 0.71766E-02    rms(broyden)= 0.71754E-02
  rms(prec ) = 0.16397E-01
  weight for this iteration     100.00

 eigenvalues of (default mixing * dielectric matrix)
  average eigenvalue GAMMA=   1.8662
  3.0201  0.9930  1.1886  2.0647  2.0647

 Free energy of the ion-electron system (eV)
  ---------------------------------------------------
  alpha Z        PSCENC =         0.24184663
  Ewald energy   TEWEN  =       125.82467867
  -Hartree energ DENC   =      -281.15514515
  -exchange      EXHF   =         0.00000000
  -V(xc)+E(xc)   XCENC  =        24.59042910
  PAW double counting   =       448.91971695     -449.69605498
  entropy T*S    EENTRO =        -0.00000000
  eigenvalues    EBANDS =       -89.70227765
  atomic energy  EATOM  =       197.04175453
  Solvation  Ediel_sol  =         0.00000000
  ---------------------------------------------------
  free energy    TOTEN  =       -23.93505191 eV

  energy without entropy =      -23.93505191  energy(sigma->0) =      -23.93505191


--------------------------------------------------------------------------------------------------------




--------------------------------------- Iteration      1(  11)  ---------------------------------------


    POTLOK:  cpu time    1.4671: real time    1.4706
    SETDIJ:  cpu time    0.0064: real time    0.0064
     EDDAV:  cpu time    0.7422: real time    0.7440
       DOS:  cpu time    0.0001: real time    0.0001
    CHARGE:  cpu time    0.0871: real time    0.0873
    MIXING:  cpu time    0.0370: real time    0.0370
    --------------------------------------------
      LOOP:  cpu time    2.3398: real time    2.3454

 eigenvalue-minimisations  :    32
 total energy-change (2. order) :-0.7275209E-02  (-0.3002469E-03)
 number of electron       7.9999999 magnetization 
 augmentation part        0.1814711 magnetization 

 Broyden mixing:
  rms(total) = 0.69906E-02    rms(broyden)= 0.69900E-02
  rms(prec ) = 0.11196E-01
  weight for this iteration     100.00

 eigenvalues of (default mixing * dielectric matrix)
  average eigenvalue GAMMA=   2.1221
  4.4713  2.8450  2.2591  1.2097  0.9737  0.9737

 Free energy of the ion-electron system (eV)
  ---------------------------------------------------
  alpha Z        PSCENC =         0.24184663
  Ewald energy   TEWEN  =       125.82467867
  -Hartree energ DENC   =      -282.03016093
  -exchange      EXHF   =         0.00000000
  -V(xc)+E(xc)   XCENC  =        24.62857498
  PAW double counting   =       453.27502152     -454.05272399
  entropy T*S    EENTRO =        -0.00000000
  eigenvalues    EBANDS =       -88.87131852
  atomic energy  EATOM  =       197.04175453
  Solvation  Ediel_sol  =         0.00000000
  ---------------------------------------------------
  free energy    TOTEN  =       -23.94232712 eV

  energy without entropy =      -23.94232712  energy(sigma->0) =      -23.94232712


--------------------------------------------------------------------------------------------------------




--------------------------------------- Iteration      1(  12)  ---------------------------------------


    POTLOK:  cpu time    1.4266: real time    1.4300
    SETDIJ:  cpu time    0.0065: real time    0.0065
     EDDAV:  cpu time    0.4151: real time    0.4161
       DOS:  cpu time    0.0001: real time    0.0001
    CHARGE:  cpu time    0.0807: real time    0.0809
    MIXING:  cpu time    0.0376: real time    0.0377
    --------------------------------------------
      LOOP:  cpu time    1.9667: real time    1.9713

 eigenvalue-minimisations  :    16
 total energy-change (2. order) :-0.3517214E-02  (-0.5007272E-04)
 number of electron       7.9999999 magnetization 
 augmentation part        0.1815866 magnetization 

 Broyden mixing:
  rms(total) = 0.21167E-02    rms(broyden)= 0.21167E-02
  rms(prec ) = 0.49594E-02
  weight for this iteration     100.00

 eigenvalues of (default mixing * dielectric matrix)
  average eigenvalue GAMMA=   2.3259
  5.1186  3.2584  2.6236  2.0548  1.2135  1.0063  1.0063

 Free energy of the ion-electron system (eV)
  ---------------------------------------------------
  alpha Z        PSCENC =         0.24184663
  Ewald energy   TEWEN  =       125.82467867
  -Hartree energ DENC   =      -281.87686119
  -exchange      EXHF   =         0.00000000
  -V(xc)+E(xc)   XCENC  =        24.60477917
  PAW double counting   =       449.31321940     -450.09062408
  entropy T*S    EENTRO =        -0.00000000
  eigenvalues    EBANDS =       -89.00463745
  atomic energy  EATOM  =       197.04175453
  Solvation  Ediel_sol  =         0.00000000
  ---------------------------------------------------
  free energy    TOTEN  =       -23.94584433 eV

  energy without entropy =      -23.94584433  energy(sigma->0) =      -23.94584433


--------------------------------------------------------------------------------------------------------




--------------------------------------- Iteration      1(  13)  ---------------------------------------


    POTLOK:  cpu time    1.3856: real time    1.3889
    SETDIJ:  cpu time    0.0064: real time    0.0064
     EDDAV:  cpu time    0.4155: real time    0.4165
       DOS:  cpu time    0.0001: real time    0.0001
    CHARGE:  cpu time    0.0823: real time    0.0825
    MIXING:  cpu time    0.0386: real time    0.0387
    --------------------------------------------
      LOOP:  cpu time    1.9285: real time    1.9331

 eigenvalue-minimisations  :    16
 total energy-change (2. order) :-0.4141604E-02  (-0.9460619E-04)
 number of electron       7.9999999 magnetization 
 augmentation part        0.1816030 magnetization 

 Broyden mixing:
  rms(total) = 0.18744E-02    rms(broyden)= 0.18742E-02
  rms(prec ) = 0.27445E-02
  weight for this iteration     100.00

 eigenvalues of (default mixing * dielectric matrix)
  average eigenvalue GAMMA=   2.3200
  5.8873  3.6660  2.5069  2.2277  1.2463  1.0695  0.9780  0.9780

 Free energy of the ion-electron system (eV)
  ---------------------------------------------------
  alpha Z        PSCENC =         0.24184663
  Ewald energy   TEWEN  =       125.82467867
  -Hartree energ DENC   =      -281.90495298
  -exchange      EXHF   =         0.00000000
  -V(xc)+E(xc)   XCENC  =        24.60111337
  PAW double counting   =       450.56029128     -451.33689876
  entropy T*S    EENTRO =        -0.00000000
  eigenvalues    EBANDS =       -88.97781867
  atomic energy  EATOM  =       197.04175453
  Solvation  Ediel_sol  =         0.00000000
  ---------------------------------------------------
  free energy    TOTEN  =       -23.94998594 eV

  energy without entropy =      -23.94998594  energy(sigma->0) =      -23.94998594


--------------------------------------------------------------------------------------------------------




--------------------------------------- Iteration      1(  14)  ---------------------------------------


    POTLOK:  cpu time    1.3837: real time    1.3870
    SETDIJ:  cpu time    0.0066: real time    0.0066
     EDDAV:  cpu time    0.7461: real time    0.7478
       DOS:  cpu time    0.0001: real time    0.0001
    CHARGE:  cpu time    0.0856: real time    0.0858
    MIXING:  cpu time    0.0410: real time    0.0411
    --------------------------------------------
      LOOP:  cpu time    2.2631: real time    2.2684

 eigenvalue-minimisations  :    32
 total energy-change (2. order) :-0.6193056E-03  (-0.6915623E-05)
 number of electron       7.9999999 magnetization 
 augmentation part        0.1815778 magnetization 

 Broyden mixing:
  rms(total) = 0.69753E-03    rms(broyden)= 0.69744E-03
  rms(prec ) = 0.13641E-02
  weight for this iteration     100.00

 eigenvalues of (default mixing * dielectric matrix)
  average eigenvalue GAMMA=   2.5137
  6.8906  4.2690  2.8051  2.4282  1.8997  1.2583  0.9980  0.9980  1.0765

 Free energy of the ion-electron system (eV)
  ---------------------------------------------------
  alpha Z        PSCENC =         0.24184663
  Ewald energy   TEWEN  =       125.82467867
  -Hartree energ DENC   =      -281.87150722
  -exchange      EXHF   =         0.00000000
  -V(xc)+E(xc)   XCENC  =        24.59621645
  PAW double counting   =       449.71961500     -450.49661402
  entropy T*S    EENTRO =        -0.00000000
  eigenvalues    EBANDS =       -89.00659529
  atomic energy  EATOM  =       197.04175453
  Solvation  Ediel_sol  =         0.00000000
  ---------------------------------------------------
  free energy    TOTEN  =       -23.95060524 eV

  energy without entropy =      -23.95060524  energy(sigma->0) =      -23.95060524


--------------------------------------------------------------------------------------------------------




--------------------------------------- Iteration      1(  15)  ---------------------------------------


    POTLOK:  cpu time    1.3829: real time    1.3861
    SETDIJ:  cpu time    0.0065: real time    0.0065
     EDDAV:  cpu time    0.4129: real time    0.4138
       DOS:  cpu time    0.0001: real time    0.0001
    CHARGE:  cpu time    0.0860: real time    0.0862
    MIXING:  cpu time    0.0408: real time    0.0409
    --------------------------------------------
      LOOP:  cpu time    1.9291: real time    1.9337

 eigenvalue-minimisations  :    16
 total energy-change (2. order) :-0.4500724E-03  (-0.4213647E-05)
 number of electron       7.9999999 magnetization 
 augmentation part        0.1815915 magnetization 

 Broyden mixing:
  rms(total) = 0.55042E-03    rms(broyden)= 0.55040E-03
  rms(prec ) = 0.74990E-03
  weight for this iteration     100.00

 eigenvalues of (default mixing * dielectric matrix)
  average eigenvalue GAMMA=   2.5046
  7.3939  4.6122  2.8929  2.4696  2.1791  1.2103  1.2103  1.0346  1.0346  1.0088

 Free energy of the ion-electron system (eV)
  ---------------------------------------------------
  alpha Z        PSCENC =         0.24184663
  Ewald energy   TEWEN  =       125.82467867
  -Hartree energ DENC   =      -281.86164087
  -exchange      EXHF   =         0.00000000
  -V(xc)+E(xc)   XCENC  =        24.59513022
  PAW double counting   =       449.40712661     -450.18406688
  entropy T*S    EENTRO =        -0.00000000
  eigenvalues    EBANDS =       -89.01588422
  atomic energy  EATOM  =       197.04175453
  Solvation  Ediel_sol  =         0.00000000
  ---------------------------------------------------
  free energy    TOTEN  =       -23.95105532 eV

  energy without entropy =      -23.95105532  energy(sigma->0) =      -23.95105532


--------------------------------------------------------------------------------------------------------




--------------------------------------- Iteration      1(  16)  ---------------------------------------


    POTLOK:  cpu time    1.3982: real time    1.4015
    SETDIJ:  cpu time    0.0064: real time    0.0064
     EDDAV:  cpu time    0.7458: real time    0.7476
       DOS:  cpu time    0.0001: real time    0.0001
    CHARGE:  cpu time    0.0847: real time    0.0849
    MIXING:  cpu time    0.0413: real time    0.0414
    --------------------------------------------
      LOOP:  cpu time    2.2764: real time    2.2818

 eigenvalue-minimisations  :    32
 total energy-change (2. order) :-0.6949767E-04  (-0.2863873E-06)
 number of electron       7.9999999 magnetization 
 augmentation part        0.1815842 magnetization 

 Broyden mixing:
  rms(total) = 0.13848E-03    rms(broyden)= 0.13843E-03
  rms(prec ) = 0.26683E-03
  weight for this iteration     100.00

 eigenvalues of (default mixing * dielectric matrix)
  average eigenvalue GAMMA=   2.6576
  8.0670  4.7662  3.9028  2.7085  2.3704  2.0682  1.2575  1.1112  0.9941  0.9941
  0.9935

 Free energy of the ion-electron system (eV)
  ---------------------------------------------------
  alpha Z        PSCENC =         0.24184663
  Ewald energy   TEWEN  =       125.82467867
  -Hartree energ DENC   =      -281.88000204
  -exchange      EXHF   =         0.00000000
  -V(xc)+E(xc)   XCENC  =        24.59640889
  PAW double counting   =       449.62763067     -450.40463856
  entropy T*S    EENTRO =        -0.00000000
  eigenvalues    EBANDS =       -88.99880359
  atomic energy  EATOM  =       197.04175453
  Solvation  Ediel_sol  =         0.00000000
  ---------------------------------------------------
  free energy    TOTEN  =       -23.95112481 eV

  energy without entropy =      -23.95112481  energy(sigma->0) =      -23.95112481


--------------------------------------------------------------------------------------------------------




--------------------------------------- Iteration      1(  17)  ---------------------------------------


    POTLOK:  cpu time    1.4929: real time    1.4966
    SETDIJ:  cpu time    0.0065: real time    0.0065
     EDDAV:  cpu time    0.4165: real time    0.4175
       DOS:  cpu time    0.0001: real time    0.0001
    CHARGE:  cpu time    0.0853: real time    0.0855
    MIXING:  cpu time    0.0423: real time    0.0424
    --------------------------------------------
      LOOP:  cpu time    2.0436: real time    2.0486

 eigenvalue-minimisations  :    16
 total energy-change (2. order) :-0.4650116E-04  (-0.3081793E-06)
 number of electron       7.9999999 magnetization 
 augmentation part        0.1815774 magnetization 

 Broyden mixing:
  rms(total) = 0.10868E-03    rms(broyden)= 0.10867E-03
  rms(prec ) = 0.16866E-03
  weight for this iteration     100.00

 eigenvalues of (default mixing * dielectric matrix)
  average eigenvalue GAMMA=   2.5668
  8.3867  5.1828  3.7556  2.6668  2.3442  1.9819  1.2529  1.2529  1.0300  1.0300
  0.9765  0.9409

 Free energy of the ion-electron system (eV)
  ---------------------------------------------------
  alpha Z        PSCENC =         0.24184663
  Ewald energy   TEWEN  =       125.82467867
  -Hartree energ DENC   =      -281.89187441
  -exchange      EXHF   =         0.00000000
  -V(xc)+E(xc)   XCENC  =        24.59694429
  PAW double counting   =       449.64778795     -450.42482951
  entropy T*S    EENTRO =        -0.00000000
  eigenvalues    EBANDS =       -88.98747946
  atomic energy  EATOM  =       197.04175453
  Solvation  Ediel_sol  =         0.00000000
  ---------------------------------------------------
  free energy    TOTEN  =       -23.95117131 eV

  energy without entropy =      -23.95117131  energy(sigma->0) =      -23.95117131


--------------------------------------------------------------------------------------------------------




--------------------------------------- Iteration      1(  18)  ---------------------------------------


    POTLOK:  cpu time    1.4822: real time    1.4857
    SETDIJ:  cpu time    0.0064: real time    0.0064
     EDDAV:  cpu time    0.7444: real time    0.7462
       DOS:  cpu time    0.0001: real time    0.0001
    CHARGE:  cpu time    0.0845: real time    0.0847
    MIXING:  cpu time    0.0433: real time    0.0434
    --------------------------------------------
      LOOP:  cpu time    2.3610: real time    2.3666

 eigenvalue-minimisations  :    32
 total energy-change (2. order) :-0.2088073E-05  (-0.2976221E-07)
 number of electron       7.9999999 magnetization 
 augmentation part        0.1815823 magnetization 

 Broyden mixing:
  rms(total) = 0.35495E-04    rms(broyden)= 0.35486E-04
  rms(prec ) = 0.63745E-04
  weight for this iteration     100.00

 eigenvalues of (default mixing * dielectric matrix)
  average eigenvalue GAMMA=   2.5973
  8.4793  5.3091  3.8660  2.6483  2.6483  2.2265  1.8950  1.4003  1.2526  0.9887
  0.9887  1.0312  1.0312

 Free energy of the ion-electron system (eV)
  ---------------------------------------------------
  alpha Z        PSCENC =         0.24184663
  Ewald energy   TEWEN  =       125.82467867
  -Hartree energ DENC   =      -281.88740888
  -exchange      EXHF   =         0.00000000
  -V(xc)+E(xc)   XCENC  =        24.59671184
  PAW double counting   =       449.64266951     -450.41967904
  entropy T*S    EENTRO =        -0.00000000
  eigenvalues    EBANDS =       -88.99174666
  atomic energy  EATOM  =       197.04175453
  Solvation  Ediel_sol  =         0.00000000
  ---------------------------------------------------
  free energy    TOTEN  =       -23.95117340 eV

  energy without entropy =      -23.95117340  energy(sigma->0) =      -23.95117340


--------------------------------------------------------------------------------------------------------




--------------------------------------- Iteration      1(  19)  ---------------------------------------


    POTLOK:  cpu time    1.5313: real time    1.5350
    SETDIJ:  cpu time    0.0063: real time    0.0063
     EDDAV:  cpu time    0.5695: real time    0.5709
       DOS:  cpu time    0.0001: real time    0.0001
    CHARGE:  cpu time    0.0799: real time    0.0800
    MIXING:  cpu time    0.0429: real time    0.0430
    --------------------------------------------
      LOOP:  cpu time    2.2301: real time    2.2354

 eigenvalue-minimisations  :    24
 total energy-change (2. order) :-0.4304008E-05  (-0.1394513E-07)
 number of electron       7.9999999 magnetization 
 augmentation part        0.1815830 magnetization 

 Broyden mixing:
  rms(total) = 0.14355E-04    rms(broyden)= 0.14349E-04
  rms(prec ) = 0.25892E-04
  weight for this iteration     100.00

 eigenvalues of (default mixing * dielectric matrix)
  average eigenvalue GAMMA=   2.5338
  8.5524  5.4185  4.0995  3.1060  2.5954  2.2923  1.8295  1.3579  1.2568  1.0330
  1.0330  0.9620  0.9620  0.9746

 Free energy of the ion-electron system (eV)
  ---------------------------------------------------
  alpha Z        PSCENC =         0.24184663
  Ewald energy   TEWEN  =       125.82467867
  -Hartree energ DENC   =      -281.88620852
  -exchange      EXHF   =         0.00000000
  -V(xc)+E(xc)   XCENC  =        24.59660466
  PAW double counting   =       449.65140094     -450.42839714
  entropy T*S    EENTRO =        -0.00000000
  eigenvalues    EBANDS =       -88.99285746
  atomic energy  EATOM  =       197.04175453
  Solvation  Ediel_sol  =         0.00000000
  ---------------------------------------------------
  free energy    TOTEN  =       -23.95117771 eV

  energy without entropy =      -23.95117771  energy(sigma->0) =      -23.95117771


--------------------------------------------------------------------------------------------------------




--------------------------------------- Iteration      1(  20)  ---------------------------------------


    POTLOK:  cpu time    1.5271: real time    1.5308
    SETDIJ:  cpu time    0.0064: real time    0.0064
     EDDAV:  cpu time    0.7237: real time    0.7254
       DOS:  cpu time    0.0001: real time    0.0001
    --------------------------------------------
      LOOP:  cpu time    2.2573: real time    2.2626

 eigenvalue-minimisations  :    32
 total energy-change (2. order) :-0.2416842E-06  (-0.5632650E-09)
 number of electron       7.9999999 magnetization 
 augmentation part        0.1815830 magnetization 

 Free energy of the ion-electron system (eV)
  ---------------------------------------------------
  alpha Z        PSCENC =         0.24184663
  Ewald energy   TEWEN  =       125.82467867
  -Hartree energ DENC   =      -281.88620777
  -exchange      EXHF   =         0.00000000
  -V(xc)+E(xc)   XCENC  =        24.59659881
  PAW double counting   =       449.64953353     -450.42653071
  entropy T*S    EENTRO =        -0.00000000
  eigenvalues    EBANDS =       -88.99285163
  atomic energy  EATOM  =       197.04175453
  Solvation  Ediel_sol  =         0.00000000
  ---------------------------------------------------
  free energy    TOTEN  =       -23.95117795 eV

  energy without entropy =      -23.95117795  energy(sigma->0) =      -23.95117795


--------------------------------------------------------------------------------------------------------




 average (electrostatic) potential at core
  the test charge radii are     0.5201  0.6991
  (the norm of the test charge is              1.0000)
       1 -41.2694       2 -41.7119       3 -41.5599       4 -41.1728       5 -58.0526



 E-fermi :  -8.7160     XC(G=0):  -0.7048     alpha+bet : -0.2103


 k-point     1 :       0.0000    0.0000    0.0000
  band No.  band energies     occupation 
      1     -16.7950      2.00000
      2      -9.6643      2.00000
      3      -9.0709      2.00000
      4      -8.9663      2.00000
      5      -0.5492      0.00000
      6       0.9686      0.00000
      7       1.0033      0.00000
      8       1.0567      0.00000


--------------------------------------------------------------------------------------------------------


 soft charge-density along one line, spin component           1
         0         1         2         3         4         5         6         7         8         9
 total charge-density along one line

 pseudopotential strength for first ion, spin component:           1
 -2.339  -4.030  -0.001   0.001   0.000
 -4.030  -6.857  -0.004   0.003   0.001
 -0.001  -0.004  -0.338  -0.002  -0.001
  0.001   0.003  -0.002  -0.339   0.001
  0.000   0.001  -0.001   0.001  -0.340
 total augmentation occupancy for first ion, spin component:           1
  3.444  -0.622   0.296  -0.249  -0.098
 -0.622   0.127  -0.055   0.047   0.019
  0.296  -0.055   0.029  -0.018  -0.007
 -0.249   0.047  -0.018   0.023   0.006
 -0.098   0.019  -0.007   0.006   0.011


------------------------ aborting loop because EDIFF is reached ----------------------------------------


    CHARGE:  cpu time    0.0819: real time    0.0821
    FORLOC:  cpu time    0.1050: real time    0.1052
    FORNL :  cpu time    0.1291: real time    0.1294
    STRESS:  cpu time    0.5035: real time    0.5047
    FORCOR:  cpu time    1.5557: real time    1.5593
    FORHAR:  cpu time    0.5029: real time    0.5041
    MIXING:  cpu time    0.0480: real time    0.0481
    OFIELD:  cpu time    0.0000: real time    0.0000

  FORCE on cell =-STRESS in cart. coord.  units (eV):
  Direction    XX          YY          ZZ          XY          YZ          ZX
  --------------------------------------------------------------------------------------
  Alpha Z     0.24185     0.24185     0.24185
  Ewald      38.99107    45.41921    41.41435     4.76793     4.12442     3.29412
  Hartree    91.12982    95.00975    95.74711     0.94213     0.92975     0.51760
  E(xc)     -27.06274   -27.04451   -27.05244     0.01865     0.01675     0.01105
  Local    -188.88677  -198.62144  -196.95821    -4.60051    -4.16266    -2.97497
  n-local   -15.62190   -15.57174   -15.50482    -0.01101     0.00966    -0.03710
  augment     0.11971     0.11636     0.12943    -0.00859    -0.00673    -0.00669
  Kinetic   100.73450    99.67058   100.27092    -0.98590    -0.92045    -0.55098
  Fock        0.00000     0.00000     0.00000     0.00000     0.00000     0.00000
  -------------------------------------------------------------------------------------
  Total      -0.35446    -0.77995    -1.71182     0.12269    -0.00926     0.25303
  in kB      -0.56696    -1.24753    -2.73806     0.19625    -0.01482     0.40472
  external pressure =       -1.52 kB  Pullay stress =        0.00 kB


 VOLUME and BASIS-vectors are now :
 -----------------------------------------------------------------------------
  energy-cutoff  :      400.00
  volume of cell :     1001.67
      direct lattice vectors                 reciprocal lattice vectors
    10.189528500  0.000000000  0.000000000     0.098139968 -0.000339389  0.000096806
     0.034426400  9.954976200  0.000000000     0.000000000  0.100452274 -0.000870026
    -0.009444900  0.085527000  9.874858000     0.000000000  0.000000000  0.101267279

  length of vectors
    10.189528500  9.955035727  9.875232888     0.098140602  0.100456042  0.101267279


 FORCES acting on ions
    electron-ion (+dipol)            ewald-force                    non-local-force                 convergence-correction
 -----------------------------------------------------------------------------------------------
   -.128E+02 0.377E+02 -.326E+02   0.140E+02 -.409E+02 0.354E+02   -.125E+01 0.379E+01 -.316E+01   0.150E-05 -.212E-04 0.412E-05
   -.168E+02 -.467E+02 -.188E+02   0.186E+02 0.520E+02 0.209E+02   -.187E+01 -.501E+01 -.206E+01   0.812E-05 0.240E-04 0.934E-05
   0.522E+02 0.353E+01 0.781E+01   -.579E+02 -.366E+01 -.855E+01   0.548E+01 0.528E+00 0.879E+00   -.412E-04 -.800E-05 -.824E-06
   -.215E+02 0.115E+02 0.444E+02   0.232E+02 -.122E+02 -.476E+02   -.202E+01 0.121E+01 0.427E+01   0.110E-04 -.132E-04 -.135E-04
   -.169E+01 -.489E+01 -.204E+00   0.202E+01 0.466E+01 -.482E-01   0.363E+00 -.170E+01 -.594E+00   -.732E-04 -.124E-03 -.232E-04
 -----------------------------------------------------------------------------------------------
   -.710E+00 0.119E+01 0.673E+00   0.711E-14 -.178E-14 0.709E-14   0.709E+00 -.119E+01 -.673E+00   -.937E-04 -.142E-03 -.240E-04


 POSITION                                       TOTAL-FORCE (eV/Angst)
 -----------------------------------------------------------------------------------
      5.40702      3.88435      5.09822        -0.100862      0.656368     -0.357148
      5.47508      5.66748      4.77888        -0.068100      0.333956     -0.005936
      4.05243      4.63147      4.22907        -0.212946      0.402050      0.143982
      5.61048      4.44656      3.39377        -0.318746      0.533193      1.064975
      5.12885      4.71525      4.39325         0.700654     -1.925567     -0.845873
 -----------------------------------------------------------------------------------
    total drift:                               -0.000955     -0.000690     -0.000225


--------------------------------------------------------------------------------------------------------



  FREE ENERGIE OF THE ION-ELECTRON SYSTEM (eV)
  ---------------------------------------------------
  free  energy   TOTEN  =       -23.95117795 eV

  energy  without entropy=      -23.95117795  energy(sigma->0) =      -23.95117795



--------------------------------------------------------------------------------------------------------


    POTLOK:  cpu time    1.4981: real time    1.5017


--------------------------------------------------------------------------------------------------------


     LOOP+:  cpu time   42.3530: real time   42.4581
    4ORBIT:  cpu time    0.0000: real time    0.0000

 total amount of memory used by VASP MPI-rank0   274966. kBytes
=======================================================================

   base      :      30000. kBytes
   nonlr-proj:       1231. kBytes
   fftplans  :      86708. kBytes
   grid      :     154683. kBytes
   one-center:         15. kBytes
   wavefun   :       2329. kBytes

  
  
 General timing and accounting informations for this job:
 ========================================================
  
                  Total CPU time used (sec):       44.111
                            User time (sec):       42.681
                          System time (sec):        1.431
                         Elapsed time (sec):       44.246
  
                   Maximum memory used (kb):      390104.
                   Average memory used (kb):           0.
  
                          Minor page faults:       222271
                          Major page faults:            0
                 Voluntary context switches:          143
