ITEM: TIMESTEP
1120
ITEM: NUMBER OF ATOMS
5
ITEM: BOX BOUNDS xy xz yz pp pp pp
-1.8626270000000000e-01 1.0499611300000000e+01 2.4562210000000001e-01
-2.3028180000000001e-01 9.9626608000000001e+00 -1.8626270000000000e-01
0.0000000000000000e+00 9.9839736000000006e+00 -2.3028180000000001e-01
ITEM: ATOMS id type x y z 
1 1 4.24439 4.66195 3.92943 
2 1 5.41585 3.50379 4.64541 
3 1 5.08314 5.09146 5.37334 
4 1 6.00011 5.01971 3.85657 
5 2 5.18733 4.55493 4.4311 
