ITEM: TIMESTEP
1540
ITEM: NUMBER OF ATOMS
5
ITEM: BOX BOUNDS xy xz yz pp pp pp
-1.8626270000000000e-01 1.0499611300000000e+01 2.4562210000000001e-01
-2.3028180000000001e-01 9.9626608000000001e+00 -1.8626270000000000e-01
0.0000000000000000e+00 9.9839736000000006e+00 -2.3028180000000001e-01
ITEM: ATOMS id type x y z 
1 1 4.6336 3.60861 4.71031 
2 1 5.6051 4.39634 3.41589 
3 1 6.0455 4.71418 5.10346 
4 1 4.4932 5.40939 4.40434 
5 2 5.18451 4.5673 4.44533 
