ITEM: TIMESTEP
1580
ITEM: NUMBER OF ATOMS
5
ITEM: BOX BOUNDS xy xz yz pp pp pp
-1.8626270000000000e-01 1.0499611300000000e+01 2.4562210000000001e-01
-2.3028180000000001e-01 9.9626608000000001e+00 -1.8626270000000000e-01
0.0000000000000000e+00 9.9839736000000006e+00 -2.3028180000000001e-01
ITEM: ATOMS id type x y z 
1 1 4.12008 4.26144 4.45027 
2 1 5.79898 3.74435 4.03416 
3 1 5.55087 4.79045 5.42162 
4 1 5.28313 5.43239 3.82062 
5 2 5.18653 4.55896 4.4376 
