ITEM: TIMESTEP
2000
ITEM: NUMBER OF ATOMS
5
ITEM: BOX BOUNDS xy xz yz pp pp pp
-1.8626270000000000e-01 1.0499611300000000e+01 2.4562210000000001e-01
-2.3028180000000001e-01 9.9626608000000001e+00 -1.8626270000000000e-01
0.0000000000000000e+00 9.9839736000000006e+00 -2.3028180000000001e-01
ITEM: ATOMS id type x y z 
1 1 4.3136 4.00277 4.71866 
2 1 5.70568 4.01374 3.62467 
3 1 5.79958 4.70326 5.36864 
4 1 4.83298 5.51114 3.99574 
5 2 5.19497 4.55877 4.43918 
