ITEM: TIMESTEP
230
ITEM: NUMBER OF ATOMS
5
ITEM: BOX BOUNDS xy xz yz pp pp pp
-1.8626270000000000e-01 1.0499611300000000e+01 2.4562210000000001e-01
-2.3028180000000001e-01 9.9626608000000001e+00 -1.8626270000000000e-01
0.0000000000000000e+00 9.9839736000000006e+00 -2.3028180000000001e-01
ITEM: ATOMS id type x y z 
1 1 4.68769 4.6235 3.47205 
2 1 4.75774 3.74717 5.03677 
3 1 5.0413 5.50516 4.96871 
4 1 6.25382 4.43835 4.31081 
5 2 5.18758 4.55183 4.43246 
