ITEM: TIMESTEP
2450
ITEM: NUMBER OF ATOMS
5
ITEM: BOX BOUNDS xy xz yz pp pp pp
-1.8626270000000000e-01 1.0499611300000000e+01 2.4562210000000001e-01
-2.3028180000000001e-01 9.9626608000000001e+00 -1.8626270000000000e-01
0.0000000000000000e+00 9.9839736000000006e+00 -2.3028180000000001e-01
ITEM: ATOMS id type x y z 
1 1 5.3924 3.471 4.45666 
2 1 4.86235 4.85238 3.46418 
3 1 6.104 5.08229 4.64546 
4 1 4.48722 4.84168 5.221 
5 2 5.17879 4.5574 4.43255 
