ITEM: TIMESTEP
2680
ITEM: NUMBER OF ATOMS
5
ITEM: BOX BOUNDS xy xz yz pp pp pp
-1.8626270000000000e-01 1.0499611300000000e+01 2.4562210000000001e-01
-2.3028180000000001e-01 9.9626608000000001e+00 -1.8626270000000000e-01
0.0000000000000000e+00 9.9839736000000006e+00 -2.3028180000000001e-01
ITEM: ATOMS id type x y z 
1 1 5.57126 4.32133 3.41088 
2 1 4.1084 4.39072 4.48153 
3 1 5.35104 5.62552 4.59089 
4 1 5.7327 3.9307 5.16659 
5 2 5.18567 4.55565 4.444 
