ITEM: TIMESTEP
2800
ITEM: NUMBER OF ATOMS
5
ITEM: BOX BOUNDS xy xz yz pp pp pp
-1.8626270000000000e-01 1.0499611300000000e+01 2.4562210000000001e-01
-2.3028180000000001e-01 9.9626608000000001e+00 -1.8626270000000000e-01
0.0000000000000000e+00 9.9839736000000006e+00 -2.3028180000000001e-01
ITEM: ATOMS id type x y z 
1 1 4.11795 4.27719 4.57966 
2 1 5.71798 3.72844 3.92232 
3 1 5.65041 4.71086 5.42198 
4 1 5.1889 5.46135 3.78712 
5 2 5.19302 4.56319 4.4389 
