ITEM: TIMESTEP
920
ITEM: NUMBER OF ATOMS
5
ITEM: BOX BOUNDS xy xz yz pp pp pp
-1.8626270000000000e-01 1.0499611300000000e+01 2.4562210000000001e-01
-2.3028180000000001e-01 9.9626608000000001e+00 -1.8626270000000000e-01
0.0000000000000000e+00 9.9839736000000006e+00 -2.3028180000000001e-01
ITEM: ATOMS id type x y z 
1 1 4.6707 4.72046 3.51344 
2 1 4.84438 3.67958 4.98395 
3 1 5.05003 5.43003 5.07095 
4 1 6.25769 4.48346 4.20097 
5 2 5.18072 4.55188 4.43405 
