ITEM: TIMESTEP
1160
ITEM: NUMBER OF ATOMS
5
ITEM: BOX BOUNDS xy xz yz pp pp pp
0.0000000000000000e+00 1.0172752399999998e+01 7.9406400000000002e-02
-4.4677799999999997e-02 1.0127241100000001e+01 2.3500180000000001e-01
0.0000000000000000e+00 9.9421453999999994e+00 -4.4677799999999997e-02
ITEM: ATOMS id type x y z 
1 1 6.17278 4.65257 4.46957 
2 1 4.74872 3.90837 3.79043 
3 1 4.86852 5.64922 3.9466 
4 1 4.70207 4.68563 5.43281 
5 2 5.08668 4.72159 4.42273 
