ITEM: TIMESTEP
1490
ITEM: NUMBER OF ATOMS
5
ITEM: BOX BOUNDS xy xz yz pp pp pp
0.0000000000000000e+00 1.0172752399999998e+01 7.9406400000000002e-02
-4.4677799999999997e-02 1.0127241100000001e+01 2.3500180000000001e-01
0.0000000000000000e+00 9.9421453999999994e+00 -4.4677799999999997e-02
ITEM: ATOMS id type x y z 
1 1 5.65292 4.24054 3.57141 
2 1 4.00366 4.61185 4.2932 
3 1 5.37445 5.80572 4.44257 
4 1 5.46939 4.26051 5.37586 
5 2 5.08598 4.71969 4.4191 
