ITEM: TIMESTEP
180
ITEM: NUMBER OF ATOMS
5
ITEM: BOX BOUNDS xy xz yz pp pp pp
0.0000000000000000e+00 1.0172752399999998e+01 7.9406400000000002e-02
-4.4677799999999997e-02 1.0127241100000001e+01 2.3500180000000001e-01
0.0000000000000000e+00 9.9421453999999994e+00 -4.4677799999999997e-02
ITEM: ATOMS id type x y z 
1 1 4.59524 4.48033 3.48914 
2 1 4.34347 5.18564 5.10899 
3 1 6.04452 5.26544 4.27808 
4 1 5.35304 3.73697 4.83989 
5 2 5.09966 4.74054 4.41634 
