ITEM: TIMESTEP
2070
ITEM: NUMBER OF ATOMS
5
ITEM: BOX BOUNDS xy xz yz pp pp pp
0.0000000000000000e+00 1.0172752399999998e+01 7.9406400000000002e-02
-4.4677799999999997e-02 1.0127241100000001e+01 2.3500180000000001e-01
0.0000000000000000e+00 9.9421453999999994e+00 -4.4677799999999997e-02
ITEM: ATOMS id type x y z 
1 1 4.43832 5.60484 4.53678 
2 1 5.52445 4.46175 5.39375 
3 1 5.89306 4.9536 3.71576 
4 1 4.53854 3.85749 4.05296 
5 2 5.09482 4.7231 4.41775 
