ITEM: TIMESTEP
2940
ITEM: NUMBER OF ATOMS
5
ITEM: BOX BOUNDS xy xz yz pp pp pp
0.0000000000000000e+00 1.0172752399999998e+01 7.9406400000000002e-02
-4.4677799999999997e-02 1.0127241100000001e+01 2.3500180000000001e-01
0.0000000000000000e+00 9.9421453999999994e+00 -4.4677799999999997e-02
ITEM: ATOMS id type x y z 
1 1 5.5118 4.09463 3.63315 
2 1 4.0145 4.81606 4.24327 
3 1 5.52312 5.73135 4.31813 
4 1 5.30239 4.32603 5.42887 
5 2 5.09837 4.71557 4.42407 
