ITEM: TIMESTEP
570
ITEM: NUMBER OF ATOMS
5
ITEM: BOX BOUNDS xy xz yz pp pp pp
0.0000000000000000e+00 1.0172752399999998e+01 7.9406400000000002e-02
-4.4677799999999997e-02 1.0127241100000001e+01 2.3500180000000001e-01
0.0000000000000000e+00 9.9421453999999994e+00 -4.4677799999999997e-02
ITEM: ATOMS id type x y z 
1 1 4.57778 5.71412 4.59377 
2 1 5.81566 4.62422 5.23999 
3 1 5.70273 4.90115 3.48787 
4 1 4.37208 3.8654 4.3526 
5 2 5.08866 4.70417 4.41983 
