ITEM: TIMESTEP
0
ITEM: NUMBER OF ATOMS
5
ITEM: BOX BOUNDS xy xz yz pp pp pp
-2.0063200000000000e-02 1.0185393200000000e+01 1.2521060000000001e-01
-2.2425339999999999e-01 9.9672280000000004e+00 -2.0063200000000000e-02
0.0000000000000000e+00 9.8716697999999994e+00 -2.2425339999999999e-01
ITEM: ATOMS id type x y z 
1 1 5.44161 3.95971 3.55292 
2 1 4.00083 4.71571 4.36427 
3 1 5.6577 5.5325 4.37403 
4 1 5.35992 4.00821 5.2992 
5 2 5.10101 4.57007 4.38869 
