ITEM: TIMESTEP
1370
ITEM: NUMBER OF ATOMS
5
ITEM: BOX BOUNDS xy xz yz pp pp pp
-2.0063200000000000e-02 1.0185393200000000e+01 1.2521060000000001e-01
-2.2425339999999999e-01 9.9672280000000004e+00 -2.0063200000000000e-02
0.0000000000000000e+00 9.8716697999999994e+00 -2.2425339999999999e-01
ITEM: ATOMS id type x y z 
1 1 5.508 5.55223 4.57722 
2 1 5.75442 3.97353 3.75513 
3 1 4.15661 4.71725 3.8825 
4 1 4.85262 4.0684 5.37418 
5 2 5.11671 4.56213 4.38881 
