ITEM: TIMESTEP
2500
ITEM: NUMBER OF ATOMS
5
ITEM: BOX BOUNDS xy xz yz pp pp pp
-2.0063200000000000e-02 1.0185393200000000e+01 1.2521060000000001e-01
-2.2425339999999999e-01 9.9672280000000004e+00 -2.0063200000000000e-02
0.0000000000000000e+00 9.8716697999999994e+00 -2.2425339999999999e-01
ITEM: ATOMS id type x y z 
1 1 4.45233 4.24825 3.56897 
2 1 4.59917 5.42475 4.93671 
3 1 6.04855 4.8081 3.95492 
4 1 5.25486 3.73078 5.07379 
5 2 5.10977 4.57043 4.39336 
