ITEM: TIMESTEP
630
ITEM: NUMBER OF ATOMS
5
ITEM: BOX BOUNDS xy xz yz pp pp pp
-2.0063200000000000e-02 1.0185393200000000e+01 1.2521060000000001e-01
-2.2425339999999999e-01 9.9672280000000004e+00 -2.0063200000000000e-02
0.0000000000000000e+00 9.8716697999999994e+00 -2.2425339999999999e-01
ITEM: ATOMS id type x y z 
1 1 5.92351 5.25246 4.42866 
2 1 5.22371 3.77217 3.61277 
3 1 4.22522 5.16023 4.12313 
4 1 4.93127 4.12634 5.42306 
5 2 5.11404 4.56215 4.38893 
