ITEM: TIMESTEP
90
ITEM: NUMBER OF ATOMS
5
ITEM: BOX BOUNDS xy xz yz pp pp pp
-2.0063200000000000e-02 1.0185393200000000e+01 1.2521060000000001e-01
-2.2425339999999999e-01 9.9672280000000004e+00 -2.0063200000000000e-02
0.0000000000000000e+00 9.8716697999999994e+00 -2.2425339999999999e-01
ITEM: ATOMS id type x y z 
1 1 4.15864 4.37595 3.76606 
2 1 5.01539 5.53286 4.91075 
3 1 5.94163 4.68572 3.75086 
4 1 5.30052 3.80838 5.14967 
5 2 5.10467 4.55451 4.38978 
