 vasp.5.4.4.18Apr17-6-g9f103f2a35 (build Jul 12 2018 13:43:46) complex           
 executed on             LinuxGNU date 2019.06.25  21:09:37
 running on    1 total cores
 distrk:  each k-point on    1 cores,    1 groups
 distr:  one band on NCORES_PER_BAND=   1 cores,    1 groups


--------------------------------------------------------------------------------------------------------


 INCAR:
 POTCAR:    PAW_PBE H 15Jun2001                   
 POTCAR:    PAW_PBE C 08Apr2002                   
 POTCAR:    PAW_PBE H 15Jun2001                   
   VRHFIN =H: ultrasoft test                                                    
   LEXCH  = PE                                                                  
   EATOM  =    12.4884 eV,    0.9179 Ry                                         
                                                                                
   TITEL  = PAW_PBE H 15Jun2001                                                 
   LULTRA =        F    use ultrasoft PP ?                                      
   IUNSCR =        0    unscreen: 0-lin 1-nonlin 2-no                           
   RPACOR =    0.000    partial core radius                                     
   POMASS =    1.000; ZVAL   =    1.000    mass and valenz                      
   RCORE  =    1.100    outmost cutoff radius                                   
   RWIGS  =    0.700; RWIGS  =    0.370    wigner-seitz radius (au A)           
   ENMAX  =  250.000; ENMIN  =  200.000 eV                                      
   RCLOC  =    0.701    cutoff for local pot                                    
   LCOR   =        T    correct aug charges                                     
   LPAW   =        T    paw PP                                                  
   EAUG   =  400.000                                                            
   RMAX   =    1.123    core radius for proj-oper                               
   RAUG   =    1.200    factor for augmentation sphere                          
   RDEP   =    1.112    radius for radial grids                                 
   RDEPT  =    0.926    core radius for aug-charge                              
                                                                                
   Atomic configuration                                                         
    2 entries                                                                   
     n  l   j            E        occ.                                          
     1  0  0.50        -6.4927   1.0000                                         
     2  1  0.50        -3.4015   0.0000                                         
   Description                                                                  
     l       E           TYP  RCUT    TYP  RCUT                                 
     0     -6.4927494     23  1.100                                             
     0      6.8029130     23  1.100                                             
     1     -4.0817478     23  1.100                                             
  local pseudopotential read in
  atomic valenz-charges read in
  non local Contribution for L=           0  read in
    real space projection operators read in
  non local Contribution for L=           0  read in
    real space projection operators read in
  non local Contribution for L=           1  read in
    real space projection operators read in
    PAW grid and wavefunctions read in

   number of l-projection  operators is LMAX  =           3
   number of lm-projection operators is LMMAX =           5

 POTCAR:    PAW_PBE C 08Apr2002                   
   VRHFIN =C: s2p2                                                              
   LEXCH  = PE                                                                  
   EATOM  =   147.1560 eV,   10.8157 Ry                                         
                                                                                
   TITEL  = PAW_PBE C 08Apr2002                                                 
   LULTRA =        F    use ultrasoft PP ?                                      
   IUNSCR =        1    unscreen: 0-lin 1-nonlin 2-no                           
   RPACOR =    1.200    partial core radius                                     
   POMASS =   12.011; ZVAL   =    4.000    mass and valenz                      
   RCORE  =    1.500    outmost cutoff radius                                   
   RWIGS  =    1.630; RWIGS  =    0.863    wigner-seitz radius (au A)           
   ENMAX  =  400.000; ENMIN  =  300.000 eV                                      
   ICORE  =        2    local potential                                         
   LCOR   =        T    correct aug charges                                     
   LPAW   =        T    paw PP                                                  
   EAUG   =  644.873                                                            
   DEXC   =    0.000                                                            
   RMAX   =    1.529    core radius for proj-oper                               
   RAUG   =    1.300    factor for augmentation sphere                          
   RDEP   =    1.501    radius for radial grids                                 
   RDEPT  =    1.300    core radius for aug-charge                              
                                                                                
   Atomic configuration                                                         
    4 entries                                                                   
     n  l   j            E        occ.                                          
     1  0  0.50      -273.3789   2.0000                                         
     2  0  0.50       -13.7508   2.0000                                         
     2  1  0.50        -5.2854   2.0000                                         
     3  2  1.50        -5.4423   0.0000                                         
   Description                                                                  
     l       E           TYP  RCUT    TYP  RCUT                                 
     0    -13.7508458     23  1.200                                             
     0     -8.2022199     23  1.200                                             
     1     -5.2854383     23  1.500                                             
     1     34.0145650     23  1.500                                             
     2     -5.4423304      7  1.500                                             
  local pseudopotential read in
  partial core-charges read in
  partial kinetic energy density read in
  atomic valenz-charges read in
  non local Contribution for L=           0  read in
    real space projection operators read in
  non local Contribution for L=           0  read in
    real space projection operators read in
  non local Contribution for L=           1  read in
    real space projection operators read in
  non local Contribution for L=           1  read in
    real space projection operators read in
    PAW grid and wavefunctions read in

   number of l-projection  operators is LMAX  =           4
   number of lm-projection operators is LMMAX =           8


 ----------------------------------------------------------------------------- 
|                                                                             |
|  ADVICE TO THIS USER RUNNING 'VASP/VAMP'   (HEAR YOUR MASTER'S VOICE ...):  |
|                                                                             |
|      You have a (more or less) 'small supercell' and for smaller cells      |
|      it is recommended  to use the reciprocal-space projection scheme!      |
|      The real space optimization is not  efficient for small cells and it   |
|      is also less accurate ...                                              |
|      Therefore set LREAL=.FALSE. in the  INCAR file                         |
|                                                                             |
 ----------------------------------------------------------------------------- 

 Optimization of the real space projectors (new method)

 maximal supplied QI-value         = 34.20
 optimisation between [QCUT,QGAM] = [  9.92, 20.18] = [ 27.55,114.04] Ry 
 Optimized for a Real-space Cutoff    1.34 Angstroem

   l    n(q)    QCUT    max X(q) W(low)/X(q) W(high)/X(q)  e(spline) 
   0      8     9.919    19.460    0.16E-03    0.20E-03    0.36E-06
   0      8     9.919    12.209    0.16E-03    0.20E-03    0.35E-06
   1      8     9.919     4.655    0.19E-03    0.46E-03    0.40E-06
 Optimization of the real space projectors (new method)

 maximal supplied QI-value         = 25.13
 optimisation between [QCUT,QGAM] = [ 10.05, 20.36] = [ 28.30,116.06] Ry 
 Optimized for a Real-space Cutoff    1.51 Angstroem

   l    n(q)    QCUT    max X(q) W(low)/X(q) W(high)/X(q)  e(spline) 
   0      9    10.053   115.676    0.19E-03    0.21E-03    0.38E-06
   0      9    10.053    87.132    0.19E-03    0.21E-03    0.38E-06
   1      9    10.053     4.429    0.87E-04    0.11E-03    0.39E-06
   1      9    10.053     2.733    0.59E-04    0.62E-04    0.43E-06
  PAW_PBE H 15Jun2001                   :
 energy of atom  1       EATOM=  -12.4884
 kinetic energy error for atom=    0.0098 (will be added to EATOM!!)
  PAW_PBE C 08Apr2002                   :
 energy of atom  2       EATOM= -147.1560
 kinetic energy error for atom=    0.0288 (will be added to EATOM!!)


 POSCAR: POSCAR file written by OVITO            
  positions in cartesian coordinates
  No initial velocities read in
 exchange correlation table for  LEXCH =        8
   RHO(1)=    0.500       N(1)  =     2000
   RHO(2)=  100.500       N(2)  =     4000



--------------------------------------------------------------------------------------------------------


 ion  position               nearest neighbor table
   1  0.443  0.437  0.364-   5 1.08
   2  0.464  0.407  0.525-   5 1.07
   3  0.479  0.580  0.451-   5 1.13
   4  0.606  0.448  0.417-   5 1.09
   5  0.504  0.469  0.446-   2 1.07   1 1.08   4 1.09   3 1.13


IMPORTANT INFORMATION: All symmetrisations will be switched off!
NOSYMM: (Re-)initialisation of all symmetry stuff for point group C_1.




Automatic generation of k-mesh.
 generate k-points for:    1    1    1
Space group operators:
 irot       det(A)        alpha          n_x          n_y          n_z        tau_x        tau_y        tau_z
    1     1.000000     0.000000     1.000000     0.000000     0.000000     0.000000     0.000000     0.000000
 
 Subroutine IBZKPT returns following result:
 ===========================================
 
 Found      1 irreducible k-points:
 
 Following reciprocal coordinates:
            Coordinates               Weight
  0.000000  0.000000  0.000000      1.000000
 
 Following cartesian coordinates:
            Coordinates               Weight
  0.000000  0.000000  0.000000      1.000000
 


--------------------------------------------------------------------------------------------------------




 Dimension of arrays:
   k-points           NKPTS =      1   k-points in BZ     NKDIM =      1   number of bands    NBANDS=      8
   number of dos      NEDOS =    301   number of ions     NIONS =      5
   non local maximal  LDIM  =      4   non local SUM 2l+1 LMDIM =      8
   total plane-waves  NPLWV = 313600
   max r-space proj   IRMAX =   4575   max aug-charges    IRDMAX=   3913
   dimension x,y,z NGX =    70 NGY =   64 NGZ =   70
   dimension x,y,z NGXF=   140 NGYF=  128 NGZF=  140
   support grid    NGXF=   140 NGYF=  128 NGZF=  140
   ions per type =               4   1
   NGX,Y,Z   is equivalent  to a cutoff of  11.63, 10.92, 11.38 a.u.
   NGXF,Y,Z  is equivalent  to a cutoff of  23.26, 21.84, 22.76 a.u.

 SYSTEM =  unknown system                          
 POSCAR =  POSCAR file written by OVITO            

 Startparameter for this run:
   NWRITE =      2    write-flag & timer
   PREC   = a         normal or accurate (medium, high low for compatibility)
   ISTART =      0    job   : 0-new  1-cont  2-samecut
   ICHARG =      2    charge: 1-file 2-atom 10-const
   ISPIN  =      1    spin polarized calculation?
   LNONCOLLINEAR =      F non collinear calculations
   LSORBIT =      F    spin-orbit coupling
   INIWAV =      1    electr: 0-lowe 1-rand  2-diag
   LASPH  =      F    aspherical Exc in radial PAW
   METAGGA=      F    non-selfconsistent MetaGGA calc.

 Electronic Relaxation 1
   ENCUT  =  400.0 eV  29.40 Ry    5.42 a.u.  16.32 15.89 16.67*2*pi/ulx,y,z
   ENINI  =  400.0     initial cutoff
   ENAUG  =  644.9 eV  augmentation charge cutoff
   NELM   =    120;   NELMIN=  4; NELMDL= -5     # of ELM steps 
   EDIFF  = 0.1E-05   stopping-criterion for ELM
   LREAL  =      T    real-space projection
   NLSPLINE    = F    spline interpolate recip. space projectors
   LCOMPAT=      F    compatible to vasp.4.4
   GGA_COMPAT  = T    GGA compatible to vasp.4.4-vasp.4.6
   LMAXPAW     = -100 max onsite density
   LMAXMIX     =    2 max onsite mixed and CHGCAR
   VOSKOWN=      0    Vosko Wilk Nusair interpolation
   ROPT   =   -0.00025  -0.00025
 Ionic relaxation
   EDIFFG = 0.1E-04   stopping-criterion for IOM
   NSW    =      0    number of steps for IOM
   NBLOCK =      1;   KBLOCK =      1    inner block; outer block 
   IBRION =     -1    ionic relax: 0-MD 1-quasi-New 2-CG
   NFREE  =      0    steps in history (QN), initial steepest desc. (CG)
   ISIF   =      2    stress and relaxation
   IWAVPR =     10    prediction:  0-non 1-charg 2-wave 3-comb
   ISYM   =      0    0-nonsym 1-usesym 2-fastsym
   LCORR  =      T    Harris-Foulkes like correction to forces

   POTIM  = 0.5000    time-step for ionic-motion
   TEIN   =    0.0    initial temperature
   TEBEG  =    0.0;   TEEND  =   0.0 temperature during run
   SMASS  =  -3.00    Nose mass-parameter (am)
   estimated Nose-frequenzy (Omega)   =  0.10E-29 period in steps =****** mass=  -0.229E-26a.u.
   SCALEE = 1.0000    scale energy and forces
   NPACO  =    256;   APACO  = 16.0  distance and # of slots for P.C.
   PSTRESS=    0.0 pullay stress

  Mass of Ions in am
   POMASS =   1.00 12.01
  Ionic Valenz
   ZVAL   =   1.00  4.00
  Atomic Wigner-Seitz radii
   RWIGS  =  -1.00 -1.00
  virtual crystal weights 
   VCA    =   1.00  1.00
   NELECT =       8.0000    total number of electrons
   NUPDOWN=      -1.0000    fix difference up-down

 DOS related values:
   EMIN   =  10.00;   EMAX   =-10.00  energy-range for DOS
   EFERMI =   0.00
   ISMEAR =     0;   SIGMA  =   0.05  broadening in eV -4-tet -1-fermi 0-gaus

 Electronic relaxation 2 (details)
   IALGO  =     38    algorithm
   LDIAG  =      T    sub-space diagonalisation (order eigenvalues)
   LSUBROT=      F    optimize rotation matrix (better conditioning)
   TURBO    =      0    0=normal 1=particle mesh
   IRESTART =      0    0=no restart 2=restart with 2 vectors
   NREBOOT  =      0    no. of reboots
   NMIN     =      0    reboot dimension
   EREF     =   0.00    reference energy to select bands
   IMIX   =      4    mixing-type and parameters
     AMIX     =   0.40;   BMIX     =  1.00
     AMIX_MAG =   1.60;   BMIX_MAG =  1.00
     AMIN     =   0.10
     WC   =   100.;   INIMIX=   1;  MIXPRE=   1;  MAXMIX= -45

 Intra band minimization:
   WEIMIN = 0.0000     energy-eigenvalue tresh-hold
   EBREAK =  0.31E-07  absolut break condition
   DEPER  =   0.30     relativ break condition  

   TIME   =   0.40     timestep for ELM

  volume/ion in A,a.u.               =     199.29      1344.86
  Fermi-wavevector in a.u.,A,eV,Ry     =   0.327809  0.619470  1.462068  0.107459
  Thomas-Fermi vector in A             =   1.220856

 Write flags
   LWAVE        =      F    write WAVECAR
   LDOWNSAMPLE  =      F    k-point downsampling of WAVECAR
   LCHARG       =      F    write CHGCAR
   LVTOT        =      F    write LOCPOT, total local potential
   LVHAR        =      F    write LOCPOT, Hartree potential only
   LELF         =      F    write electronic localiz. function (ELF)
   LORBIT       =      0    0 simple, 1 ext, 2 COOP (PROOUT), +10 PAW based schemes


 Dipole corrections
   LMONO  =      F    monopole corrections only (constant potential shift)
   LDIPOL =      F    correct potential (dipole corrections)
   IDIPOL =      0    1-x, 2-y, 3-z, 4-all directions 
   EPSILON=  1.0000000 bulk dielectric constant

 Exchange correlation treatment:
   GGA     =    --    GGA type
   LEXCH   =     8    internal setting for exchange type
   VOSKOWN=      0    Vosko Wilk Nusair interpolation
   LHFCALC =     F    Hartree Fock is set to
   LHFONE  =     F    Hartree Fock one center treatment
   AEXX    =    0.0000 exact exchange contribution

 Linear response parameters
   LEPSILON=     F    determine dielectric tensor
   LRPA    =     F    only Hartree local field effects (RPA)
   LNABLA  =     F    use nabla operator in PAW spheres
   LVEL    =     F    velocity operator in full k-point grid
   LINTERFAST=   F  fast interpolation
   KINTER  =     0    interpolate to denser k-point grid
   CSHIFT  =0.1000    complex shift for real part using Kramers Kronig
   OMEGAMAX=  -1.0    maximum frequency
   DEG_THRESHOLD= 0.2000000E-02 threshold for treating states as degnerate
   RTIME   =   -0.100 relaxation time in fs
  (WPLASMAI=    0.000 imaginary part of plasma frequency in eV, 0.658/RTIME)
   DFIELD  = 0.0000000 0.0000000 0.0000000 field for delta impulse in time

 Orbital magnetization related:
   ORBITALMAG=     F  switch on orbital magnetization
   LCHIMAG   =     F  perturbation theory with respect to B field
   DQ        =  0.001000  dq finite difference perturbation B field
   LLRAUG    =     F  two centre corrections for induced B field



--------------------------------------------------------------------------------------------------------


 Static calculation
 charge density and potential will be updated during run
 non-spin polarized calculation
 Variant of blocked Davidson
 Davidson routine will perform the subspace rotation
 perform sub-space diagonalisation
    after iterative eigenvector-optimisation
 modified Broyden-mixing scheme, WC =      100.0
 initial mixing is a Kerker type mixing with AMIX =  0.4000 and BMIX =      1.0000
 Hartree-type preconditioning will be used
 using additional bands            4
 real space projection scheme for non local part
 use partial core corrections
 calculate Harris-corrections to forces   (improved forces if not selfconsistent)
 use gradient corrections 
 use of overlap-Matrix (Vanderbilt PP)
 Gauss-broadening in eV      SIGMA  =   0.05


--------------------------------------------------------------------------------------------------------


  energy-cutoff  :      400.00
  volume of cell :      996.44
      direct lattice vectors                 reciprocal lattice vectors
    10.006619500  0.000000000  0.000000000     0.099933849  0.002269562  0.000748798
    -0.221244500  9.741885200  0.000000000     0.000000000  0.102649536 -0.002424515
    -0.082073000  0.241428100 10.221626300     0.000000000 -0.000000000  0.097831790

  length of vectors
    10.006619500  9.744397179 10.224806488     0.099962422  0.102678165  0.097831790



 k-points in units of 2pi/SCALE and weight: read from INCAR                         
   0.00000000  0.00000000  0.00000000       1.000

 k-points in reciprocal lattice and weights: read from INCAR                         
   0.00000000  0.00000000  0.00000000       1.000

 position of ions in fractional coordinates (direct lattice) 
   0.44312094  0.43676162  0.36445082
   0.46427836  0.40665799  0.52473057
   0.47852858  0.58014269  0.45142521
   0.60601473  0.44832811  0.41680842
   0.50415614  0.46859325  0.44588111

 position of ions in cartesian coordinates  (Angst):
   4.30760000  4.34287020  3.72528010
   4.51281980  4.08830020  5.36359980
   4.62305020  5.76067020  4.61429980
   5.93076000  4.46819020  4.26045990
   4.90463020  4.67262990  4.55763010



--------------------------------------------------------------------------------------------------------


 k-point  1 :   0.0000 0.0000 0.0000  plane waves:   18093

 maximum and minimum number of plane-waves per node :     18093    18093

 maximum number of plane-waves:     18093
 maximum index in each direction: 
   IXMAX=   16   IYMAX=   15   IZMAX=   16
   IXMIN=  -16   IYMIN=  -15   IZMIN=  -16


 serial   3D FFT for wavefunctions
 parallel 3D FFT for charge:
    minimum data exchange during FFTs selected (reduces bandwidth)


 total amount of memory used by VASP MPI-rank0   274698. kBytes
=======================================================================

   base      :      30000. kBytes
   nonlr-proj:       1238. kBytes
   fftplans  :      86584. kBytes
   grid      :     154542. kBytes
   one-center:         15. kBytes
   wavefun   :       2319. kBytes

     INWAV:  cpu time    0.0000: real time    0.0000
 Broyden mixing: mesh for mixing (old mesh)
   NGX = 33   NGY = 31   NGZ = 33
  (NGX  =140   NGY  =128   NGZ  =140)
  gives a total of  33759 points

 initial charge density was supplied:
 charge density of overlapping atoms calculated
 number of electron       8.0000000 magnetization 
 keeping initial charge density in first step


--------------------------------------------------------------------------------------------------------


 Maximum index for non-local projection operator         4393
 Maximum index for augmentation-charges         3589 (set IRDMAX)


--------------------------------------------------------------------------------------------------------


 First call to EWALD:  gamma=   0.177
 Maximum number of real-space cells 3x 3x 3
 Maximum number of reciprocal cells 3x 3x 3

    FEWALD:  cpu time    0.0007: real time    0.0007


--------------------------------------- Iteration      1(   1)  ---------------------------------------


    POTLOK:  cpu time    1.6283: real time    1.6324
    SETDIJ:  cpu time    0.0066: real time    0.0066
     EDDAV:  cpu time    0.4619: real time    0.4630
       DOS:  cpu time    0.0001: real time    0.0001
    --------------------------------------------
      LOOP:  cpu time    2.0970: real time    2.1022

 eigenvalue-minimisations  :    16
 total energy-change (2. order) : 0.6346839E+02  (-0.1514416E+03)
 number of electron       8.0000000 magnetization 
 augmentation part        8.0000000 magnetization 

 Free energy of the ion-electron system (eV)
  ---------------------------------------------------
  alpha Z        PSCENC =         0.24311671
  Ewald energy   TEWEN  =       130.69062337
  -Hartree energ DENC   =      -244.98145350
  -exchange      EXHF   =         0.00000000
  -V(xc)+E(xc)   XCENC  =        22.05893973
  PAW double counting   =       117.05815612     -117.66307307
  entropy T*S    EENTRO =        -0.00000000
  eigenvalues    EBANDS =       -40.97967835
  atomic energy  EATOM  =       197.04175453
  Solvation  Ediel_sol  =         0.00000000
  ---------------------------------------------------
  free energy    TOTEN  =        63.46838554 eV

  energy without entropy =       63.46838554  energy(sigma->0) =       63.46838554


--------------------------------------------------------------------------------------------------------




--------------------------------------- Iteration      1(   2)  ---------------------------------------


     EDDAV:  cpu time    0.8372: real time    0.8393
       DOS:  cpu time    0.0001: real time    0.0001
    --------------------------------------------
      LOOP:  cpu time    0.8373: real time    0.8394

 eigenvalue-minimisations  :    32
 total energy-change (2. order) :-0.7733636E+02  (-0.7733636E+02)
 number of electron       8.0000000 magnetization 
 augmentation part        8.0000000 magnetization 

 Free energy of the ion-electron system (eV)
  ---------------------------------------------------
  alpha Z        PSCENC =         0.24311671
  Ewald energy   TEWEN  =       130.69062337
  -Hartree energ DENC   =      -244.98145350
  -exchange      EXHF   =         0.00000000
  -V(xc)+E(xc)   XCENC  =        22.05893973
  PAW double counting   =       117.05815612     -117.66307307
  entropy T*S    EENTRO =        -0.00000000
  eigenvalues    EBANDS =      -118.31603729
  atomic energy  EATOM  =       197.04175453
  Solvation  Ediel_sol  =         0.00000000
  ---------------------------------------------------
  free energy    TOTEN  =       -13.86797339 eV

  energy without entropy =      -13.86797339  energy(sigma->0) =      -13.86797339


--------------------------------------------------------------------------------------------------------




--------------------------------------- Iteration      1(   3)  ---------------------------------------


     EDDAV:  cpu time    0.4631: real time    0.4642
       DOS:  cpu time    0.0001: real time    0.0001
    --------------------------------------------
      LOOP:  cpu time    0.4632: real time    0.4643

 eigenvalue-minimisations  :    16
 total energy-change (2. order) :-0.1295124E+02  (-0.1295124E+02)
 number of electron       8.0000000 magnetization 
 augmentation part        8.0000000 magnetization 

 Free energy of the ion-electron system (eV)
  ---------------------------------------------------
  alpha Z        PSCENC =         0.24311671
  Ewald energy   TEWEN  =       130.69062337
  -Hartree energ DENC   =      -244.98145350
  -exchange      EXHF   =         0.00000000
  -V(xc)+E(xc)   XCENC  =        22.05893973
  PAW double counting   =       117.05815612     -117.66307307
  entropy T*S    EENTRO =        -0.00000000
  eigenvalues    EBANDS =      -131.26727486
  atomic energy  EATOM  =       197.04175453
  Solvation  Ediel_sol  =         0.00000000
  ---------------------------------------------------
  free energy    TOTEN  =       -26.81921096 eV

  energy without entropy =      -26.81921096  energy(sigma->0) =      -26.81921096


--------------------------------------------------------------------------------------------------------




--------------------------------------- Iteration      1(   4)  ---------------------------------------


     EDDAV:  cpu time    0.8398: real time    0.8418
       DOS:  cpu time    0.0001: real time    0.0001
    --------------------------------------------
      LOOP:  cpu time    0.8399: real time    0.8419

 eigenvalue-minimisations  :    32
 total energy-change (2. order) :-0.6958291E+00  (-0.6958291E+00)
 number of electron       8.0000000 magnetization 
 augmentation part        8.0000000 magnetization 

 Free energy of the ion-electron system (eV)
  ---------------------------------------------------
  alpha Z        PSCENC =         0.24311671
  Ewald energy   TEWEN  =       130.69062337
  -Hartree energ DENC   =      -244.98145350
  -exchange      EXHF   =         0.00000000
  -V(xc)+E(xc)   XCENC  =        22.05893973
  PAW double counting   =       117.05815612     -117.66307307
  entropy T*S    EENTRO =        -0.00000000
  eigenvalues    EBANDS =      -131.96310396
  atomic energy  EATOM  =       197.04175453
  Solvation  Ediel_sol  =         0.00000000
  ---------------------------------------------------
  free energy    TOTEN  =       -27.51504007 eV

  energy without entropy =      -27.51504007  energy(sigma->0) =      -27.51504007


--------------------------------------------------------------------------------------------------------




--------------------------------------- Iteration      1(   5)  ---------------------------------------


     EDDAV:  cpu time    0.8289: real time    0.8308
       DOS:  cpu time    0.0001: real time    0.0001
    CHARGE:  cpu time    0.0928: real time    0.0930
    MIXING:  cpu time    0.0321: real time    0.0322
    --------------------------------------------
      LOOP:  cpu time    0.9539: real time    0.9562

 eigenvalue-minimisations  :    32
 total energy-change (2. order) :-0.3389275E-03  (-0.3389281E-03)
 number of electron       8.0000005 magnetization 
 augmentation part        0.2281207 magnetization 

 Broyden mixing:
  rms(total) = 0.88604E+00    rms(broyden)= 0.88580E+00
  rms(prec ) = 0.12485E+01
  weight for this iteration     100.00

 Free energy of the ion-electron system (eV)
  ---------------------------------------------------
  alpha Z        PSCENC =         0.24311671
  Ewald energy   TEWEN  =       130.69062337
  -Hartree energ DENC   =      -244.98145350
  -exchange      EXHF   =         0.00000000
  -V(xc)+E(xc)   XCENC  =        22.05893973
  PAW double counting   =       117.05815612     -117.66307307
  entropy T*S    EENTRO =        -0.00000000
  eigenvalues    EBANDS =      -131.96344289
  atomic energy  EATOM  =       197.04175453
  Solvation  Ediel_sol  =         0.00000000
  ---------------------------------------------------
  free energy    TOTEN  =       -27.51537900 eV

  energy without entropy =      -27.51537900  energy(sigma->0) =      -27.51537900


--------------------------------------------------------------------------------------------------------




--------------------------------------- Iteration      1(   6)  ---------------------------------------


    POTLOK:  cpu time    1.6167: real time    1.6205
    SETDIJ:  cpu time    0.0065: real time    0.0065
     EDDAV:  cpu time    0.6566: real time    0.6582
       DOS:  cpu time    0.0001: real time    0.0001
    CHARGE:  cpu time    0.0799: real time    0.0801
    MIXING:  cpu time    0.0342: real time    0.0343
    --------------------------------------------
      LOOP:  cpu time    2.3941: real time    2.3998

 eigenvalue-minimisations  :    24
 total energy-change (2. order) : 0.2986607E+01  (-0.9032453E+00)
 number of electron       8.0000004 magnetization 
 augmentation part        0.1996897 magnetization 

 Broyden mixing:
  rms(total) = 0.45002E+00    rms(broyden)= 0.44989E+00
  rms(prec ) = 0.56416E+00
  weight for this iteration     100.00

 eigenvalues of (default mixing * dielectric matrix)
  average eigenvalue GAMMA=   1.2054
  1.2054

 Free energy of the ion-electron system (eV)
  ---------------------------------------------------
  alpha Z        PSCENC =         0.24311671
  Ewald energy   TEWEN  =       130.69062337
  -Hartree energ DENC   =      -265.02931335
  -exchange      EXHF   =         0.00000000
  -V(xc)+E(xc)   XCENC  =        23.27343567
  PAW double counting   =       241.14069452     -241.92493401
  entropy T*S    EENTRO =        -0.00000000
  eigenvalues    EBANDS =      -109.96414965
  atomic energy  EATOM  =       197.04175453
  Solvation  Ediel_sol  =         0.00000000
  ---------------------------------------------------
  free energy    TOTEN  =       -24.52877220 eV

  energy without entropy =      -24.52877220  energy(sigma->0) =      -24.52877220


--------------------------------------------------------------------------------------------------------




--------------------------------------- Iteration      1(   7)  ---------------------------------------


    POTLOK:  cpu time    1.6179: real time    1.6218
    SETDIJ:  cpu time    0.0064: real time    0.0064
     EDDAV:  cpu time    0.6383: real time    0.6398
       DOS:  cpu time    0.0001: real time    0.0001
    CHARGE:  cpu time    0.0823: real time    0.0825
    MIXING:  cpu time    0.0346: real time    0.0347
    --------------------------------------------
      LOOP:  cpu time    2.3797: real time    2.3853

 eigenvalue-minimisations  :    24
 total energy-change (2. order) : 0.4981896E+00  (-0.7950904E-01)
 number of electron       8.0000004 magnetization 
 augmentation part        0.1910438 magnetization 

 Broyden mixing:
  rms(total) = 0.22799E+00    rms(broyden)= 0.22794E+00
  rms(prec ) = 0.27947E+00
  weight for this iteration     100.00

 eigenvalues of (default mixing * dielectric matrix)
  average eigenvalue GAMMA=   1.6963
  1.2601  2.1324

 Free energy of the ion-electron system (eV)
  ---------------------------------------------------
  alpha Z        PSCENC =         0.24311671
  Ewald energy   TEWEN  =       130.69062337
  -Hartree energ DENC   =      -275.36540063
  -exchange      EXHF   =         0.00000000
  -V(xc)+E(xc)   XCENC  =        24.04529434
  PAW double counting   =       372.86679510     -373.68121507
  entropy T*S    EENTRO =        -0.00000000
  eigenvalues    EBANDS =       -99.87155093
  atomic energy  EATOM  =       197.04175453
  Solvation  Ediel_sol  =         0.00000000
  ---------------------------------------------------
  free energy    TOTEN  =       -24.03058259 eV

  energy without entropy =      -24.03058259  energy(sigma->0) =      -24.03058259


--------------------------------------------------------------------------------------------------------




--------------------------------------- Iteration      1(   8)  ---------------------------------------


    POTLOK:  cpu time    1.6177: real time    1.6215
    SETDIJ:  cpu time    0.0064: real time    0.0064
     EDDAV:  cpu time    0.8296: real time    0.8315
       DOS:  cpu time    0.0001: real time    0.0001
    CHARGE:  cpu time    0.0901: real time    0.0903
    MIXING:  cpu time    0.0358: real time    0.0359
    --------------------------------------------
      LOOP:  cpu time    2.5796: real time    2.5857

 eigenvalue-minimisations  :    32
 total energy-change (2. order) : 0.1630384E+00  (-0.1738200E-01)
 number of electron       8.0000004 magnetization 
 augmentation part        0.1884394 magnetization 

 Broyden mixing:
  rms(total) = 0.27132E-01    rms(broyden)= 0.27104E-01
  rms(prec ) = 0.55920E-01
  weight for this iteration     100.00

 eigenvalues of (default mixing * dielectric matrix)
  average eigenvalue GAMMA=   1.5740
  2.1635  1.1270  1.4316

 Free energy of the ion-electron system (eV)
  ---------------------------------------------------
  alpha Z        PSCENC =         0.24311671
  Ewald energy   TEWEN  =       130.69062337
  -Hartree energ DENC   =      -282.34906330
  -exchange      EXHF   =         0.00000000
  -V(xc)+E(xc)   XCENC  =        24.66409051
  PAW double counting   =       488.87179369     -489.67213293
  entropy T*S    EENTRO =        -0.00000000
  eigenvalues    EBANDS =       -93.35772675
  atomic energy  EATOM  =       197.04175453
  Solvation  Ediel_sol  =         0.00000000
  ---------------------------------------------------
  free energy    TOTEN  =       -23.86754417 eV

  energy without entropy =      -23.86754417  energy(sigma->0) =      -23.86754417


--------------------------------------------------------------------------------------------------------




--------------------------------------- Iteration      1(   9)  ---------------------------------------


    POTLOK:  cpu time    1.6146: real time    1.6185
    SETDIJ:  cpu time    0.0064: real time    0.0064
     EDDAV:  cpu time    0.4662: real time    0.4673
       DOS:  cpu time    0.0001: real time    0.0001
    CHARGE:  cpu time    0.0880: real time    0.0882
    MIXING:  cpu time    0.0380: real time    0.0381
    --------------------------------------------
      LOOP:  cpu time    2.2133: real time    2.2186

 eigenvalue-minimisations  :    16
 total energy-change (2. order) : 0.8041811E-02  (-0.4165487E-03)
 number of electron       8.0000004 magnetization 
 augmentation part        0.1879247 magnetization 

 Broyden mixing:
  rms(total) = 0.15998E-01    rms(broyden)= 0.15994E-01
  rms(prec ) = 0.35759E-01
  weight for this iteration     100.00

 eigenvalues of (default mixing * dielectric matrix)
  average eigenvalue GAMMA=   1.8720
  2.8031  2.4825  0.9848  1.2175

 Free energy of the ion-electron system (eV)
  ---------------------------------------------------
  alpha Z        PSCENC =         0.24311671
  Ewald energy   TEWEN  =       130.69062337
  -Hartree energ DENC   =      -283.81105573
  -exchange      EXHF   =         0.00000000
  -V(xc)+E(xc)   XCENC  =        24.74632497
  PAW double counting   =       488.22400458     -489.02122439
  entropy T*S    EENTRO =        -0.00000000
  eigenvalues    EBANDS =       -91.97304640
  atomic energy  EATOM  =       197.04175453
  Solvation  Ediel_sol  =         0.00000000
  ---------------------------------------------------
  free energy    TOTEN  =       -23.85950236 eV

  energy without entropy =      -23.85950236  energy(sigma->0) =      -23.85950236


--------------------------------------------------------------------------------------------------------




--------------------------------------- Iteration      1(  10)  ---------------------------------------


    POTLOK:  cpu time    1.5444: real time    1.5480
    SETDIJ:  cpu time    0.0065: real time    0.0065
     EDDAV:  cpu time    0.4694: real time    0.4705
       DOS:  cpu time    0.0001: real time    0.0001
    CHARGE:  cpu time    0.0854: real time    0.0856
    MIXING:  cpu time    0.0360: real time    0.0361
    --------------------------------------------
      LOOP:  cpu time    2.1418: real time    2.1469

 eigenvalue-minimisations  :    16
 total energy-change (2. order) : 0.7799571E-02  (-0.5081034E-03)
 number of electron       8.0000004 magnetization 
 augmentation part        0.1876822 magnetization 

 Broyden mixing:
  rms(total) = 0.66855E-02    rms(broyden)= 0.66842E-02
  rms(prec ) = 0.16648E-01
  weight for this iteration     100.00

 eigenvalues of (default mixing * dielectric matrix)
  average eigenvalue GAMMA=   1.8833
  3.0835  1.0010  1.2289  2.2961  1.8072

 Free energy of the ion-electron system (eV)
  ---------------------------------------------------
  alpha Z        PSCENC =         0.24311671
  Ewald energy   TEWEN  =       130.69062337
  -Hartree energ DENC   =      -285.34570924
  -exchange      EXHF   =         0.00000000
  -V(xc)+E(xc)   XCENC  =        24.81320287
  PAW double counting   =       478.95390072     -479.74743996
  entropy T*S    EENTRO =        -0.00000000
  eigenvalues    EBANDS =       -90.50115179
  atomic energy  EATOM  =       197.04175453
  Solvation  Ediel_sol  =         0.00000000
  ---------------------------------------------------
  free energy    TOTEN  =       -23.85170279 eV

  energy without entropy =      -23.85170279  energy(sigma->0) =      -23.85170279


--------------------------------------------------------------------------------------------------------




--------------------------------------- Iteration      1(  11)  ---------------------------------------


    POTLOK:  cpu time    1.4665: real time    1.4700
    SETDIJ:  cpu time    0.0064: real time    0.0064
     EDDAV:  cpu time    0.8365: real time    0.8385
       DOS:  cpu time    0.0001: real time    0.0001
    CHARGE:  cpu time    0.0875: real time    0.0877
    MIXING:  cpu time    0.0369: real time    0.0370
    --------------------------------------------
      LOOP:  cpu time    2.4338: real time    2.4396

 eigenvalue-minimisations  :    32
 total energy-change (2. order) :-0.5950053E-02  (-0.1938881E-03)
 number of electron       8.0000004 magnetization 
 augmentation part        0.1873961 magnetization 

 Broyden mixing:
  rms(total) = 0.38790E-02    rms(broyden)= 0.38783E-02
  rms(prec ) = 0.91395E-02
  weight for this iteration     100.00

 eigenvalues of (default mixing * dielectric matrix)
  average eigenvalue GAMMA=   2.0646
  4.1079  2.7758  2.1471  1.2687  1.0167  1.0711

 Free energy of the ion-electron system (eV)
  ---------------------------------------------------
  alpha Z        PSCENC =         0.24311671
  Ewald energy   TEWEN  =       130.69062337
  -Hartree energ DENC   =      -286.06153930
  -exchange      EXHF   =         0.00000000
  -V(xc)+E(xc)   XCENC  =        24.83882433
  PAW double counting   =       479.89835763     -480.69269511
  entropy T*S    EENTRO =        -0.00000000
  eigenvalues    EBANDS =       -89.81609500
  atomic energy  EATOM  =       197.04175453
  Solvation  Ediel_sol  =         0.00000000
  ---------------------------------------------------
  free energy    TOTEN  =       -23.85765284 eV

  energy without entropy =      -23.85765284  energy(sigma->0) =      -23.85765284


--------------------------------------------------------------------------------------------------------




--------------------------------------- Iteration      1(  12)  ---------------------------------------


    POTLOK:  cpu time    1.4225: real time    1.4258
    SETDIJ:  cpu time    0.0065: real time    0.0065
     EDDAV:  cpu time    0.8349: real time    0.8369
       DOS:  cpu time    0.0001: real time    0.0001
    CHARGE:  cpu time    0.0876: real time    0.0878
    MIXING:  cpu time    0.0376: real time    0.0377
    --------------------------------------------
      LOOP:  cpu time    2.3891: real time    2.3948

 eigenvalue-minimisations  :    32
 total energy-change (2. order) :-0.4516851E-02  (-0.5684942E-04)
 number of electron       8.0000004 magnetization 
 augmentation part        0.1874646 magnetization 

 Broyden mixing:
  rms(total) = 0.23766E-02    rms(broyden)= 0.23765E-02
  rms(prec ) = 0.53570E-02
  weight for this iteration     100.00

 eigenvalues of (default mixing * dielectric matrix)
  average eigenvalue GAMMA=   2.3605
  5.4124  3.1117  2.6603  2.0188  1.2588  1.0309  1.0309

 Free energy of the ion-electron system (eV)
  ---------------------------------------------------
  alpha Z        PSCENC =         0.24311671
  Ewald energy   TEWEN  =       130.69062337
  -Hartree energ DENC   =      -285.99851950
  -exchange      EXHF   =         0.00000000
  -V(xc)+E(xc)   XCENC  =        24.82119755
  PAW double counting   =       477.18640601     -477.98048361
  entropy T*S    EENTRO =        -0.00000000
  eigenvalues    EBANDS =       -89.86626476
  atomic energy  EATOM  =       197.04175453
  Solvation  Ediel_sol  =         0.00000000
  ---------------------------------------------------
  free energy    TOTEN  =       -23.86216970 eV

  energy without entropy =      -23.86216970  energy(sigma->0) =      -23.86216970


--------------------------------------------------------------------------------------------------------




--------------------------------------- Iteration      1(  13)  ---------------------------------------


    POTLOK:  cpu time    1.3629: real time    1.3661
    SETDIJ:  cpu time    0.0065: real time    0.0065
     EDDAV:  cpu time    0.8365: real time    0.8385
       DOS:  cpu time    0.0001: real time    0.0001
    CHARGE:  cpu time    0.0853: real time    0.0855
    MIXING:  cpu time    0.0382: real time    0.0383
    --------------------------------------------
      LOOP:  cpu time    2.3295: real time    2.3350

 eigenvalue-minimisations  :    32
 total energy-change (2. order) :-0.4009424E-02  (-0.9297049E-04)
 number of electron       8.0000004 magnetization 
 augmentation part        0.1873735 magnetization 

 Broyden mixing:
  rms(total) = 0.16619E-02    rms(broyden)= 0.16617E-02
  rms(prec ) = 0.28230E-02
  weight for this iteration     100.00

 eigenvalues of (default mixing * dielectric matrix)
  average eigenvalue GAMMA=   2.2334
  5.7812  3.3639  2.4079  2.0927  1.2663  1.1205  0.9910  0.8437

 Free energy of the ion-electron system (eV)
  ---------------------------------------------------
  alpha Z        PSCENC =         0.24311671
  Ewald energy   TEWEN  =       130.69062337
  -Hartree energ DENC   =      -286.15813574
  -exchange      EXHF   =         0.00000000
  -V(xc)+E(xc)   XCENC  =        24.82499709
  PAW double counting   =       479.21479917     -480.00873375
  entropy T*S    EENTRO =        -0.00000000
  eigenvalues    EBANDS =       -89.71460049
  atomic energy  EATOM  =       197.04175453
  Solvation  Ediel_sol  =         0.00000000
  ---------------------------------------------------
  free energy    TOTEN  =       -23.86617912 eV

  energy without entropy =      -23.86617912  energy(sigma->0) =      -23.86617912


--------------------------------------------------------------------------------------------------------




--------------------------------------- Iteration      1(  14)  ---------------------------------------


    POTLOK:  cpu time    1.3543: real time    1.3576
    SETDIJ:  cpu time    0.0064: real time    0.0065
     EDDAV:  cpu time    0.4688: real time    0.4699
       DOS:  cpu time    0.0001: real time    0.0001
    CHARGE:  cpu time    0.0855: real time    0.0857
    MIXING:  cpu time    0.0391: real time    0.0392
    --------------------------------------------
      LOOP:  cpu time    1.9542: real time    1.9589

 eigenvalue-minimisations  :    16
 total energy-change (2. order) :-0.7268082E-03  (-0.7169813E-05)
 number of electron       8.0000004 magnetization 
 augmentation part        0.1874068 magnetization 

 Broyden mixing:
  rms(total) = 0.72647E-03    rms(broyden)= 0.72643E-03
  rms(prec ) = 0.15406E-02
  weight for this iteration     100.00

 eigenvalues of (default mixing * dielectric matrix)
  average eigenvalue GAMMA=   2.5552
  6.9439  4.4979  2.8957  2.3892  1.9763  1.2551  1.0935  0.9728  0.9728

 Free energy of the ion-electron system (eV)
  ---------------------------------------------------
  alpha Z        PSCENC =         0.24311671
  Ewald energy   TEWEN  =       130.69062337
  -Hartree energ DENC   =      -286.06362869
  -exchange      EXHF   =         0.00000000
  -V(xc)+E(xc)   XCENC  =        24.81680722
  PAW double counting   =       478.16243244     -478.95637621
  entropy T*S    EENTRO =        -0.00000000
  eigenvalues    EBANDS =       -89.80163530
  atomic energy  EATOM  =       197.04175453
  Solvation  Ediel_sol  =         0.00000000
  ---------------------------------------------------
  free energy    TOTEN  =       -23.86690593 eV

  energy without entropy =      -23.86690593  energy(sigma->0) =      -23.86690593


--------------------------------------------------------------------------------------------------------




--------------------------------------- Iteration      1(  15)  ---------------------------------------


    POTLOK:  cpu time    1.3538: real time    1.3570
    SETDIJ:  cpu time    0.0065: real time    0.0065
     EDDAV:  cpu time    0.4593: real time    0.4603
       DOS:  cpu time    0.0001: real time    0.0001
    CHARGE:  cpu time    0.0833: real time    0.0835
    MIXING:  cpu time    0.0424: real time    0.0425
    --------------------------------------------
      LOOP:  cpu time    1.9454: real time    1.9500

 eigenvalue-minimisations  :    16
 total energy-change (2. order) :-0.6399601E-03  (-0.8582892E-05)
 number of electron       8.0000004 magnetization 
 augmentation part        0.1874075 magnetization 

 Broyden mixing:
  rms(total) = 0.42628E-03    rms(broyden)= 0.42622E-03
  rms(prec ) = 0.66218E-03
  weight for this iteration     100.00

 eigenvalues of (default mixing * dielectric matrix)
  average eigenvalue GAMMA=   2.4175
  7.1339  4.5090  2.7862  2.4118  1.9653  1.2597  1.1411  0.9926  0.9877  0.9877

 Free energy of the ion-electron system (eV)
  ---------------------------------------------------
  alpha Z        PSCENC =         0.24311671
  Ewald energy   TEWEN  =       130.69062337
  -Hartree energ DENC   =      -286.07467756
  -exchange      EXHF   =         0.00000000
  -V(xc)+E(xc)   XCENC  =        24.81700320
  PAW double counting   =       478.17024521     -478.96406109
  entropy T*S    EENTRO =        -0.00000000
  eigenvalues    EBANDS =       -89.79155026
  atomic energy  EATOM  =       197.04175453
  Solvation  Ediel_sol  =         0.00000000
  ---------------------------------------------------
  free energy    TOTEN  =       -23.86754589 eV

  energy without entropy =      -23.86754589  energy(sigma->0) =      -23.86754589


--------------------------------------------------------------------------------------------------------




--------------------------------------- Iteration      1(  16)  ---------------------------------------


    POTLOK:  cpu time    1.3562: real time    1.3594
    SETDIJ:  cpu time    0.0064: real time    0.0064
     EDDAV:  cpu time    0.8190: real time    0.8210
       DOS:  cpu time    0.0001: real time    0.0001
    CHARGE:  cpu time    0.0849: real time    0.0851
    MIXING:  cpu time    0.0395: real time    0.0396
    --------------------------------------------
      LOOP:  cpu time    2.3060: real time    2.3115

 eigenvalue-minimisations  :    32
 total energy-change (2. order) :-0.4982743E-04  (-0.2958820E-06)
 number of electron       8.0000004 magnetization 
 augmentation part        0.1873945 magnetization 

 Broyden mixing:
  rms(total) = 0.16559E-03    rms(broyden)= 0.16557E-03
  rms(prec ) = 0.33596E-03
  weight for this iteration     100.00

 eigenvalues of (default mixing * dielectric matrix)
  average eigenvalue GAMMA=   2.6365
  8.2340  4.8787  3.7032  2.6047  2.3229  1.9517  1.2493  1.1324  0.9951  0.9646
  0.9646

 Free energy of the ion-electron system (eV)
  ---------------------------------------------------
  alpha Z        PSCENC =         0.24311671
  Ewald energy   TEWEN  =       130.69062337
  -Hartree energ DENC   =      -286.08693416
  -exchange      EXHF   =         0.00000000
  -V(xc)+E(xc)   XCENC  =        24.81762123
  PAW double counting   =       478.24653304     -479.04043763
  entropy T*S    EENTRO =        -0.00000000
  eigenvalues    EBANDS =       -89.77987280
  atomic energy  EATOM  =       197.04175453
  Solvation  Ediel_sol  =         0.00000000
  ---------------------------------------------------
  free energy    TOTEN  =       -23.86759572 eV

  energy without entropy =      -23.86759572  energy(sigma->0) =      -23.86759572


--------------------------------------------------------------------------------------------------------




--------------------------------------- Iteration      1(  17)  ---------------------------------------


    POTLOK:  cpu time    1.4067: real time    1.4101
    SETDIJ:  cpu time    0.0062: real time    0.0062
     EDDAV:  cpu time    0.6053: real time    0.6068
       DOS:  cpu time    0.0001: real time    0.0001
    CHARGE:  cpu time    0.0789: real time    0.0791
    MIXING:  cpu time    0.0406: real time    0.0407
    --------------------------------------------
      LOOP:  cpu time    2.1378: real time    2.1430

 eigenvalue-minimisations  :    24
 total energy-change (2. order) :-0.6710065E-04  (-0.3214619E-06)
 number of electron       8.0000004 magnetization 
 augmentation part        0.1873916 magnetization 

 Broyden mixing:
  rms(total) = 0.80818E-04    rms(broyden)= 0.80803E-04
  rms(prec ) = 0.13204E-03
  weight for this iteration     100.00

 eigenvalues of (default mixing * dielectric matrix)
  average eigenvalue GAMMA=   2.5534
  8.3522  5.1536  3.6027  2.7330  2.2819  1.8723  1.3274  1.2710  0.9789  0.9789
  1.0446  1.0446

 Free energy of the ion-electron system (eV)
  ---------------------------------------------------
  alpha Z        PSCENC =         0.24311671
  Ewald energy   TEWEN  =       130.69062337
  -Hartree energ DENC   =      -286.09929585
  -exchange      EXHF   =         0.00000000
  -V(xc)+E(xc)   XCENC  =        24.81827411
  PAW double counting   =       478.22351098     -479.01743504
  entropy T*S    EENTRO =        -0.00000000
  eigenvalues    EBANDS =       -89.76821162
  atomic energy  EATOM  =       197.04175453
  Solvation  Ediel_sol  =         0.00000000
  ---------------------------------------------------
  free energy    TOTEN  =       -23.86766282 eV

  energy without entropy =      -23.86766282  energy(sigma->0) =      -23.86766282


--------------------------------------------------------------------------------------------------------




--------------------------------------- Iteration      1(  18)  ---------------------------------------


    POTLOK:  cpu time    1.4188: real time    1.4221
    SETDIJ:  cpu time    0.0062: real time    0.0062
     EDDAV:  cpu time    0.7703: real time    0.7721
       DOS:  cpu time    0.0001: real time    0.0001
    CHARGE:  cpu time    0.0776: real time    0.0778
    MIXING:  cpu time    0.0415: real time    0.0416
    --------------------------------------------
      LOOP:  cpu time    2.3144: real time    2.3198

 eigenvalue-minimisations  :    32
 total energy-change (2. order) :-0.4601138E-05  (-0.2285437E-07)
 number of electron       8.0000004 magnetization 
 augmentation part        0.1873961 magnetization 

 Broyden mixing:
  rms(total) = 0.40498E-04    rms(broyden)= 0.40480E-04
  rms(prec ) = 0.71072E-04
  weight for this iteration     100.00

 eigenvalues of (default mixing * dielectric matrix)
  average eigenvalue GAMMA=   2.5957
  8.4880  5.3827  3.9841  2.8848  2.5685  2.2081  1.8757  1.2217  1.2217  0.9716
  0.9716  0.9830  0.9830

 Free energy of the ion-electron system (eV)
  ---------------------------------------------------
  alpha Z        PSCENC =         0.24311671
  Ewald energy   TEWEN  =       130.69062337
  -Hartree energ DENC   =      -286.09511587
  -exchange      EXHF   =         0.00000000
  -V(xc)+E(xc)   XCENC  =        24.81803094
  PAW double counting   =       478.24099323     -479.03489358
  entropy T*S    EENTRO =        -0.00000000
  eigenvalues    EBANDS =       -89.77217675
  atomic energy  EATOM  =       197.04175453
  Solvation  Ediel_sol  =         0.00000000
  ---------------------------------------------------
  free energy    TOTEN  =       -23.86766742 eV

  energy without entropy =      -23.86766742  energy(sigma->0) =      -23.86766742


--------------------------------------------------------------------------------------------------------




--------------------------------------- Iteration      1(  19)  ---------------------------------------


    POTLOK:  cpu time    1.4338: real time    1.4372
    SETDIJ:  cpu time    0.0062: real time    0.0062
     EDDAV:  cpu time    0.4312: real time    0.4323
       DOS:  cpu time    0.0001: real time    0.0001
    CHARGE:  cpu time    0.0731: real time    0.0732
    MIXING:  cpu time    0.0419: real time    0.0420
    --------------------------------------------
      LOOP:  cpu time    1.9863: real time    1.9910

 eigenvalue-minimisations  :    16
 total energy-change (2. order) :-0.3619208E-05  (-0.1532141E-07)
 number of electron       8.0000004 magnetization 
 augmentation part        0.1873952 magnetization 

 Broyden mixing:
  rms(total) = 0.20321E-04    rms(broyden)= 0.20320E-04
  rms(prec ) = 0.34415E-04
  weight for this iteration     100.00

 eigenvalues of (default mixing * dielectric matrix)
  average eigenvalue GAMMA=   2.5585
  8.5497  5.3891  4.1181  2.9972  2.7146  2.2393  1.9123  1.5372  1.2325  1.1599
  1.0291  0.9497  0.9952  0.9952

 Free energy of the ion-electron system (eV)
  ---------------------------------------------------
  alpha Z        PSCENC =         0.24311671
  Ewald energy   TEWEN  =       130.69062337
  -Hartree energ DENC   =      -286.09644180
  -exchange      EXHF   =         0.00000000
  -V(xc)+E(xc)   XCENC  =        24.81807275
  PAW double counting   =       478.25744882     -479.05134570
  entropy T*S    EENTRO =        -0.00000000
  eigenvalues    EBANDS =       -89.77089972
  atomic energy  EATOM  =       197.04175453
  Solvation  Ediel_sol  =         0.00000000
  ---------------------------------------------------
  free energy    TOTEN  =       -23.86767104 eV

  energy without entropy =      -23.86767104  energy(sigma->0) =      -23.86767104


--------------------------------------------------------------------------------------------------------




--------------------------------------- Iteration      1(  20)  ---------------------------------------


    POTLOK:  cpu time    1.4330: real time    1.4364
    SETDIJ:  cpu time    0.0062: real time    0.0062
     EDDAV:  cpu time    0.7538: real time    0.7556
       DOS:  cpu time    0.0001: real time    0.0001
    CHARGE:  cpu time    0.0713: real time    0.0715
    MIXING:  cpu time    0.0420: real time    0.0421
    --------------------------------------------
      LOOP:  cpu time    2.3065: real time    2.3120

 eigenvalue-minimisations  :    32
 total energy-change (2. order) :-0.1092783E-05  (-0.2417071E-08)
 number of electron       8.0000004 magnetization 
 augmentation part        0.1873950 magnetization 

 Broyden mixing:
  rms(total) = 0.85933E-05    rms(broyden)= 0.85899E-05
  rms(prec ) = 0.18916E-04
  weight for this iteration     100.00

 eigenvalues of (default mixing * dielectric matrix)
  average eigenvalue GAMMA=   2.5904
  8.5845  5.5549  4.4729  3.6321  2.6454  2.5248  2.1640  1.8948  1.2261  1.2261
  0.9849  0.9849  0.9456  1.0076  1.0076

 Free energy of the ion-electron system (eV)
  ---------------------------------------------------
  alpha Z        PSCENC =         0.24311671
  Ewald energy   TEWEN  =       130.69062337
  -Hartree energ DENC   =      -286.09602898
  -exchange      EXHF   =         0.00000000
  -V(xc)+E(xc)   XCENC  =        24.81803835
  PAW double counting   =       478.24503435     -479.03893393
  entropy T*S    EENTRO =        -0.00000000
  eigenvalues    EBANDS =       -89.77127653
  atomic energy  EATOM  =       197.04175453
  Solvation  Ediel_sol  =         0.00000000
  ---------------------------------------------------
  free energy    TOTEN  =       -23.86767213 eV

  energy without entropy =      -23.86767213  energy(sigma->0) =      -23.86767213


--------------------------------------------------------------------------------------------------------




--------------------------------------- Iteration      1(  21)  ---------------------------------------


    POTLOK:  cpu time    1.4002: real time    1.4035
    SETDIJ:  cpu time    0.0060: real time    0.0060
     EDDAV:  cpu time    0.5774: real time    0.5788
       DOS:  cpu time    0.0001: real time    0.0001
    --------------------------------------------
      LOOP:  cpu time    1.9838: real time    1.9885

 eigenvalue-minimisations  :    24
 total energy-change (2. order) :-0.5627345E-06  (-0.1523237E-08)
 number of electron       8.0000004 magnetization 
 augmentation part        0.1873950 magnetization 

 Free energy of the ion-electron system (eV)
  ---------------------------------------------------
  alpha Z        PSCENC =         0.24311671
  Ewald energy   TEWEN  =       130.69062337
  -Hartree energ DENC   =      -286.09584870
  -exchange      EXHF   =         0.00000000
  -V(xc)+E(xc)   XCENC  =        24.81803226
  PAW double counting   =       478.23844685     -479.03234637
  entropy T*S    EENTRO =        -0.00000000
  eigenvalues    EBANDS =       -89.77145134
  atomic energy  EATOM  =       197.04175453
  Solvation  Ediel_sol  =         0.00000000
  ---------------------------------------------------
  free energy    TOTEN  =       -23.86767269 eV

  energy without entropy =      -23.86767269  energy(sigma->0) =      -23.86767269


--------------------------------------------------------------------------------------------------------




 average (electrostatic) potential at core
  the test charge radii are     0.5201  0.6991
  (the norm of the test charge is              1.0000)
       1 -41.5570       2 -41.7742       3 -41.3311       4 -41.6537       5 -57.9261



 E-fermi :  -8.5569     XC(G=0):  -0.6958     alpha+bet : -0.2114


 k-point     1 :       0.0000    0.0000    0.0000
  band No.  band energies     occupation 
      1     -16.9973      2.00000
      2      -9.6737      2.00000
      3      -9.4203      2.00000
      4      -8.7944      2.00000
      5      -0.5284      0.00000
      6       0.9720      0.00000
      7       1.0031      0.00000
      8       1.0676      0.00000


--------------------------------------------------------------------------------------------------------


 soft charge-density along one line, spin component           1
         0         1         2         3         4         5         6         7         8         9
 total charge-density along one line

 pseudopotential strength for first ion, spin component:           1
 -2.341  -4.033  -0.001  -0.001  -0.001
 -4.033  -6.865  -0.002  -0.005  -0.003
 -0.001  -0.002  -0.337   0.001   0.001
 -0.001  -0.005   0.001  -0.335   0.002
 -0.001  -0.003   0.001   0.002  -0.336
 total augmentation occupancy for first ion, spin component:           1
  3.626  -0.650   0.138   0.349   0.251
 -0.650   0.135  -0.026  -0.065  -0.046
  0.138  -0.026   0.015   0.011   0.008
  0.349  -0.065   0.011   0.038   0.020
  0.251  -0.046   0.008   0.020   0.025


------------------------ aborting loop because EDIFF is reached ----------------------------------------


    CHARGE:  cpu time    0.0706: real time    0.0708
    FORLOC:  cpu time    0.1005: real time    0.1008
    FORNL :  cpu time    0.1295: real time    0.1298
    STRESS:  cpu time    0.4878: real time    0.4889
    FORCOR:  cpu time    1.4112: real time    1.4146
    FORHAR:  cpu time    0.4499: real time    0.4510
    MIXING:  cpu time    0.0413: real time    0.0414
    OFIELD:  cpu time    0.0000: real time    0.0000

  FORCE on cell =-STRESS in cart. coord.  units (eV):
  Direction    XX          YY          ZZ          XY          YZ          ZX
  --------------------------------------------------------------------------------------
  Alpha Z     0.24312     0.24312     0.24312
  Ewald      47.05907    47.48500    36.14652    -2.50723    -4.23137    -6.68751
  Hartree    95.96478    99.36477    90.76677    -1.25203    -0.70886    -1.77118
  E(xc)     -27.27418   -27.27531   -27.31855    -0.01688    -0.01817    -0.03193
  Local    -200.86044  -205.84002  -186.02325     3.64404     3.95726     7.20898
  n-local   -16.06479   -15.93585   -16.23183    -0.09258    -0.03576    -0.12021
  augment     0.10450     0.11509     0.11126    -0.00099     0.00752     0.00837
  Kinetic   100.81038   100.87411   103.40521     0.92165     1.04855     1.83392
  Fock        0.00000     0.00000     0.00000     0.00000     0.00000     0.00000
  -------------------------------------------------------------------------------------
  Total      -0.01756    -0.96909     1.09923     0.69598     0.01916     0.44043
  in kB      -0.02824    -1.55821     1.76746     1.11907     0.03082     0.70817
  external pressure =        0.06 kB  Pullay stress =        0.00 kB


 VOLUME and BASIS-vectors are now :
 -----------------------------------------------------------------------------
  energy-cutoff  :      400.00
  volume of cell :      996.44
      direct lattice vectors                 reciprocal lattice vectors
    10.006619500  0.000000000  0.000000000     0.099933849  0.002269562  0.000748798
    -0.221244500  9.741885200  0.000000000     0.000000000  0.102649536 -0.002424515
    -0.082073000  0.241428100 10.221626300     0.000000000 -0.000000000  0.097831790

  length of vectors
    10.006619500  9.744397179 10.224806488     0.099962422  0.102678165  0.097831790


 FORCES acting on ions
    electron-ion (+dipol)            ewald-force                    non-local-force                 convergence-correction
 -----------------------------------------------------------------------------------------------
   0.299E+02 0.167E+02 0.420E+02   -.335E+02 -.188E+02 -.473E+02   0.321E+01 0.174E+01 0.441E+01   -.104E-04 -.382E-05 -.209E-04
   0.191E+02 0.292E+02 -.415E+02   -.212E+02 -.327E+02 0.469E+02   0.228E+01 0.328E+01 -.436E+01   -.145E-04 -.138E-04 0.240E-04
   0.122E+02 -.501E+02 -.331E+01   -.129E+02 0.542E+02 0.387E+01   0.137E+01 -.490E+01 -.160E+00   -.127E-04 0.235E-04 -.192E-05
   -.506E+02 0.970E+01 0.138E+02   0.562E+02 -.106E+02 -.150E+02   -.529E+01 0.110E+01 0.165E+01   0.291E-04 -.805E-05 -.172E-04
   -.106E+02 -.681E+01 -.107E+02   0.114E+02 0.791E+01 0.115E+02   -.159E+01 0.972E-01 -.183E+01   -.198E-04 -.189E-04 -.200E-04
 -----------------------------------------------------------------------------------------------
   0.318E-01 -.132E+01 0.282E+00   -.711E-14 -.711E-14 -.178E-14   -.320E-01 0.132E+01 -.283E+00   -.283E-04 -.211E-04 -.359E-04


 POSITION                                       TOTAL-FORCE (eV/Angst)
 -----------------------------------------------------------------------------------
      4.30760      4.34287      3.72528        -0.453192     -0.370610     -0.895599
      4.51282      4.08830      5.36360         0.167476     -0.244139      1.070952
      4.62305      5.76067      4.61430         0.662146     -0.750955      0.402471
      5.93076      4.46819      4.26046         0.343984      0.169147      0.434358
      4.90463      4.67263      4.55763        -0.720414      1.196556     -1.012182
 -----------------------------------------------------------------------------------
    total drift:                               -0.000246      0.000221     -0.000546


--------------------------------------------------------------------------------------------------------



  FREE ENERGIE OF THE ION-ELECTRON SYSTEM (eV)
  ---------------------------------------------------
  free  energy   TOTEN  =       -23.86767269 eV

  energy  without entropy=      -23.86767269  energy(sigma->0) =      -23.86767269



--------------------------------------------------------------------------------------------------------


    POTLOK:  cpu time    1.3398: real time    1.3430


--------------------------------------------------------------------------------------------------------


     LOOP+:  cpu time   45.0279: real time   45.1407
    4ORBIT:  cpu time    0.0000: real time    0.0000

 total amount of memory used by VASP MPI-rank0   274698. kBytes
=======================================================================

   base      :      30000. kBytes
   nonlr-proj:       1238. kBytes
   fftplans  :      86584. kBytes
   grid      :     154542. kBytes
   one-center:         15. kBytes
   wavefun   :       2319. kBytes

  
  
 General timing and accounting informations for this job:
 ========================================================
  
                  Total CPU time used (sec):       46.779
                            User time (sec):       45.332
                          System time (sec):        1.448
                         Elapsed time (sec):       46.910
  
                   Maximum memory used (kb):      391752.
                   Average memory used (kb):           0.
  
                          Minor page faults:       216601
                          Major page faults:            0
                 Voluntary context switches:          147
