ITEM: TIMESTEP
2310
ITEM: NUMBER OF ATOMS
5
ITEM: BOX BOUNDS xy xz yz pp pp pp
-2.7386470000000002e-01 1.0300175599999999e+01 -2.7386470000000002e-01
-1.5715050000000000e-01 1.0281992900000001e+01 8.5216399999999998e-02
0.0000000000000000e+00 9.8218317000000006e+00 -1.5715050000000000e-01
ITEM: ATOMS id type x y z 
1 1 4.93183 3.69028 4.07857 
2 1 5.09451 5.32838 3.49821 
3 1 5.91472 4.9764 4.94728 
4 1 4.21492 5.074 4.9374 
5 2 5.04467 4.74267 4.37294 
