ITEM: TIMESTEP
2740
ITEM: NUMBER OF ATOMS
5
ITEM: BOX BOUNDS xy xz yz pp pp pp
-2.7386470000000002e-01 1.0300175599999999e+01 -2.7386470000000002e-01
-1.5715050000000000e-01 1.0281992900000001e+01 8.5216399999999998e-02
0.0000000000000000e+00 9.8218317000000006e+00 -1.5715050000000000e-01
ITEM: ATOMS id type x y z 
1 1 4.49186 3.79918 4.25522 
2 1 5.69351 5.0257 3.47151 
3 1 5.69145 4.69447 5.30104 
4 1 4.29137 5.56685 4.45862 
5 2 5.04366 4.74125 4.37086 
