 vasp.5.4.4.18Apr17-6-g9f103f2a35 (build Jul 12 2018 13:43:46) complex           
 executed on             LinuxGNU date 2019.06.25  21:09:25
 running on    1 total cores
 distrk:  each k-point on    1 cores,    1 groups
 distr:  one band on NCORES_PER_BAND=   1 cores,    1 groups


--------------------------------------------------------------------------------------------------------


 INCAR:
 POTCAR:    PAW_PBE H 15Jun2001                   
 POTCAR:    PAW_PBE C 08Apr2002                   
 POTCAR:    PAW_PBE H 15Jun2001                   
   VRHFIN =H: ultrasoft test                                                    
   LEXCH  = PE                                                                  
   EATOM  =    12.4884 eV,    0.9179 Ry                                         
                                                                                
   TITEL  = PAW_PBE H 15Jun2001                                                 
   LULTRA =        F    use ultrasoft PP ?                                      
   IUNSCR =        0    unscreen: 0-lin 1-nonlin 2-no                           
   RPACOR =    0.000    partial core radius                                     
   POMASS =    1.000; ZVAL   =    1.000    mass and valenz                      
   RCORE  =    1.100    outmost cutoff radius                                   
   RWIGS  =    0.700; RWIGS  =    0.370    wigner-seitz radius (au A)           
   ENMAX  =  250.000; ENMIN  =  200.000 eV                                      
   RCLOC  =    0.701    cutoff for local pot                                    
   LCOR   =        T    correct aug charges                                     
   LPAW   =        T    paw PP                                                  
   EAUG   =  400.000                                                            
   RMAX   =    1.123    core radius for proj-oper                               
   RAUG   =    1.200    factor for augmentation sphere                          
   RDEP   =    1.112    radius for radial grids                                 
   RDEPT  =    0.926    core radius for aug-charge                              
                                                                                
   Atomic configuration                                                         
    2 entries                                                                   
     n  l   j            E        occ.                                          
     1  0  0.50        -6.4927   1.0000                                         
     2  1  0.50        -3.4015   0.0000                                         
   Description                                                                  
     l       E           TYP  RCUT    TYP  RCUT                                 
     0     -6.4927494     23  1.100                                             
     0      6.8029130     23  1.100                                             
     1     -4.0817478     23  1.100                                             
  local pseudopotential read in
  atomic valenz-charges read in
  non local Contribution for L=           0  read in
    real space projection operators read in
  non local Contribution for L=           0  read in
    real space projection operators read in
  non local Contribution for L=           1  read in
    real space projection operators read in
    PAW grid and wavefunctions read in

   number of l-projection  operators is LMAX  =           3
   number of lm-projection operators is LMMAX =           5

 POTCAR:    PAW_PBE C 08Apr2002                   
   VRHFIN =C: s2p2                                                              
   LEXCH  = PE                                                                  
   EATOM  =   147.1560 eV,   10.8157 Ry                                         
                                                                                
   TITEL  = PAW_PBE C 08Apr2002                                                 
   LULTRA =        F    use ultrasoft PP ?                                      
   IUNSCR =        1    unscreen: 0-lin 1-nonlin 2-no                           
   RPACOR =    1.200    partial core radius                                     
   POMASS =   12.011; ZVAL   =    4.000    mass and valenz                      
   RCORE  =    1.500    outmost cutoff radius                                   
   RWIGS  =    1.630; RWIGS  =    0.863    wigner-seitz radius (au A)           
   ENMAX  =  400.000; ENMIN  =  300.000 eV                                      
   ICORE  =        2    local potential                                         
   LCOR   =        T    correct aug charges                                     
   LPAW   =        T    paw PP                                                  
   EAUG   =  644.873                                                            
   DEXC   =    0.000                                                            
   RMAX   =    1.529    core radius for proj-oper                               
   RAUG   =    1.300    factor for augmentation sphere                          
   RDEP   =    1.501    radius for radial grids                                 
   RDEPT  =    1.300    core radius for aug-charge                              
                                                                                
   Atomic configuration                                                         
    4 entries                                                                   
     n  l   j            E        occ.                                          
     1  0  0.50      -273.3789   2.0000                                         
     2  0  0.50       -13.7508   2.0000                                         
     2  1  0.50        -5.2854   2.0000                                         
     3  2  1.50        -5.4423   0.0000                                         
   Description                                                                  
     l       E           TYP  RCUT    TYP  RCUT                                 
     0    -13.7508458     23  1.200                                             
     0     -8.2022199     23  1.200                                             
     1     -5.2854383     23  1.500                                             
     1     34.0145650     23  1.500                                             
     2     -5.4423304      7  1.500                                             
  local pseudopotential read in
  partial core-charges read in
  partial kinetic energy density read in
  atomic valenz-charges read in
  non local Contribution for L=           0  read in
    real space projection operators read in
  non local Contribution for L=           0  read in
    real space projection operators read in
  non local Contribution for L=           1  read in
    real space projection operators read in
  non local Contribution for L=           1  read in
    real space projection operators read in
    PAW grid and wavefunctions read in

   number of l-projection  operators is LMAX  =           4
   number of lm-projection operators is LMMAX =           8


 ----------------------------------------------------------------------------- 
|                                                                             |
|  ADVICE TO THIS USER RUNNING 'VASP/VAMP'   (HEAR YOUR MASTER'S VOICE ...):  |
|                                                                             |
|      You have a (more or less) 'small supercell' and for smaller cells      |
|      it is recommended  to use the reciprocal-space projection scheme!      |
|      The real space optimization is not  efficient for small cells and it   |
|      is also less accurate ...                                              |
|      Therefore set LREAL=.FALSE. in the  INCAR file                         |
|                                                                             |
 ----------------------------------------------------------------------------- 

 Optimization of the real space projectors (new method)

 maximal supplied QI-value         = 34.20
 optimisation between [QCUT,QGAM] = [  9.92, 20.18] = [ 27.55,114.04] Ry 
 Optimized for a Real-space Cutoff    1.34 Angstroem

   l    n(q)    QCUT    max X(q) W(low)/X(q) W(high)/X(q)  e(spline) 
   0      8     9.919    19.460    0.16E-03    0.20E-03    0.36E-06
   0      8     9.919    12.209    0.16E-03    0.20E-03    0.35E-06
   1      8     9.919     4.655    0.19E-03    0.46E-03    0.40E-06
 Optimization of the real space projectors (new method)

 maximal supplied QI-value         = 25.13
 optimisation between [QCUT,QGAM] = [ 10.05, 20.36] = [ 28.30,116.06] Ry 
 Optimized for a Real-space Cutoff    1.51 Angstroem

   l    n(q)    QCUT    max X(q) W(low)/X(q) W(high)/X(q)  e(spline) 
   0      9    10.053   115.676    0.19E-03    0.21E-03    0.38E-06
   0      9    10.053    87.132    0.19E-03    0.21E-03    0.38E-06
   1      9    10.053     4.429    0.87E-04    0.11E-03    0.39E-06
   1      9    10.053     2.733    0.59E-04    0.62E-04    0.43E-06
  PAW_PBE H 15Jun2001                   :
 energy of atom  1       EATOM=  -12.4884
 kinetic energy error for atom=    0.0098 (will be added to EATOM!!)
  PAW_PBE C 08Apr2002                   :
 energy of atom  2       EATOM= -147.1560
 kinetic energy error for atom=    0.0288 (will be added to EATOM!!)


 POSCAR: POSCAR file written by OVITO            
  positions in cartesian coordinates
  No initial velocities read in
 exchange correlation table for  LEXCH =        8
   RHO(1)=    0.500       N(1)  =     2000
   RHO(2)=  100.500       N(2)  =     4000



--------------------------------------------------------------------------------------------------------


 ion  position               nearest neighbor table
   1  0.572  0.407  0.505-   5 1.11
   2  0.528  0.572  0.428-   5 1.07
   3  0.408  0.468  0.493-   5 1.08
   4  0.500  0.407  0.350-   5 1.13
   5  0.503  0.470  0.445-   2 1.07   3 1.08   1 1.11   4 1.13


IMPORTANT INFORMATION: All symmetrisations will be switched off!
NOSYMM: (Re-)initialisation of all symmetry stuff for point group C_1.




Automatic generation of k-mesh.
 generate k-points for:    1    1    1
Space group operators:
 irot       det(A)        alpha          n_x          n_y          n_z        tau_x        tau_y        tau_z
    1     1.000000     0.000000     1.000000     0.000000     0.000000     0.000000     0.000000     0.000000
 
 Subroutine IBZKPT returns following result:
 ===========================================
 
 Found      1 irreducible k-points:
 
 Following reciprocal coordinates:
            Coordinates               Weight
  0.000000  0.000000  0.000000      1.000000
 
 Following cartesian coordinates:
            Coordinates               Weight
  0.000000  0.000000  0.000000      1.000000
 


--------------------------------------------------------------------------------------------------------




 Dimension of arrays:
   k-points           NKPTS =      1   k-points in BZ     NKDIM =      1   number of bands    NBANDS=      8
   number of dos      NEDOS =    301   number of ions     NIONS =      5
   non local maximal  LDIM  =      4   non local SUM 2l+1 LMDIM =      8
   total plane-waves  NPLWV = 313600
   max r-space proj   IRMAX =   4552   max aug-charges    IRDMAX=   3894
   dimension x,y,z NGX =    70 NGY =   70 NGZ =   64
   dimension x,y,z NGXF=   140 NGYF=  140 NGZF=  128
   support grid    NGXF=   140 NGYF=  140 NGZF=  128
   ions per type =               4   1
   NGX,Y,Z   is equivalent  to a cutoff of  11.42, 11.69, 10.77 a.u.
   NGXF,Y,Z  is equivalent  to a cutoff of  22.84, 23.38, 21.55 a.u.

 SYSTEM =  unknown system                          
 POSCAR =  POSCAR file written by OVITO            

 Startparameter for this run:
   NWRITE =      2    write-flag & timer
   PREC   = a         normal or accurate (medium, high low for compatibility)
   ISTART =      0    job   : 0-new  1-cont  2-samecut
   ICHARG =      2    charge: 1-file 2-atom 10-const
   ISPIN  =      1    spin polarized calculation?
   LNONCOLLINEAR =      F non collinear calculations
   LSORBIT =      F    spin-orbit coupling
   INIWAV =      1    electr: 0-lowe 1-rand  2-diag
   LASPH  =      F    aspherical Exc in radial PAW
   METAGGA=      F    non-selfconsistent MetaGGA calc.

 Electronic Relaxation 1
   ENCUT  =  400.0 eV  29.40 Ry    5.42 a.u.  16.62 16.23 16.10*2*pi/ulx,y,z
   ENINI  =  400.0     initial cutoff
   ENAUG  =  644.9 eV  augmentation charge cutoff
   NELM   =    120;   NELMIN=  4; NELMDL= -5     # of ELM steps 
   EDIFF  = 0.1E-05   stopping-criterion for ELM
   LREAL  =      T    real-space projection
   NLSPLINE    = F    spline interpolate recip. space projectors
   LCOMPAT=      F    compatible to vasp.4.4
   GGA_COMPAT  = T    GGA compatible to vasp.4.4-vasp.4.6
   LMAXPAW     = -100 max onsite density
   LMAXMIX     =    2 max onsite mixed and CHGCAR
   VOSKOWN=      0    Vosko Wilk Nusair interpolation
   ROPT   =   -0.00025  -0.00025
 Ionic relaxation
   EDIFFG = 0.1E-04   stopping-criterion for IOM
   NSW    =      0    number of steps for IOM
   NBLOCK =      1;   KBLOCK =      1    inner block; outer block 
   IBRION =     -1    ionic relax: 0-MD 1-quasi-New 2-CG
   NFREE  =      0    steps in history (QN), initial steepest desc. (CG)
   ISIF   =      2    stress and relaxation
   IWAVPR =     10    prediction:  0-non 1-charg 2-wave 3-comb
   ISYM   =      0    0-nonsym 1-usesym 2-fastsym
   LCORR  =      T    Harris-Foulkes like correction to forces

   POTIM  = 0.5000    time-step for ionic-motion
   TEIN   =    0.0    initial temperature
   TEBEG  =    0.0;   TEEND  =   0.0 temperature during run
   SMASS  =  -3.00    Nose mass-parameter (am)
   estimated Nose-frequenzy (Omega)   =  0.10E-29 period in steps =****** mass=  -0.237E-26a.u.
   SCALEE = 1.0000    scale energy and forces
   NPACO  =    256;   APACO  = 16.0  distance and # of slots for P.C.
   PSTRESS=    0.0 pullay stress

  Mass of Ions in am
   POMASS =   1.00 12.01
  Ionic Valenz
   ZVAL   =   1.00  4.00
  Atomic Wigner-Seitz radii
   RWIGS  =  -1.00 -1.00
  virtual crystal weights 
   VCA    =   1.00  1.00
   NELECT =       8.0000    total number of electrons
   NUPDOWN=      -1.0000    fix difference up-down

 DOS related values:
   EMIN   =  10.00;   EMAX   =-10.00  energy-range for DOS
   EFERMI =   0.00
   ISMEAR =     0;   SIGMA  =   0.05  broadening in eV -4-tet -1-fermi 0-gaus

 Electronic relaxation 2 (details)
   IALGO  =     38    algorithm
   LDIAG  =      T    sub-space diagonalisation (order eigenvalues)
   LSUBROT=      F    optimize rotation matrix (better conditioning)
   TURBO    =      0    0=normal 1=particle mesh
   IRESTART =      0    0=no restart 2=restart with 2 vectors
   NREBOOT  =      0    no. of reboots
   NMIN     =      0    reboot dimension
   EREF     =   0.00    reference energy to select bands
   IMIX   =      4    mixing-type and parameters
     AMIX     =   0.40;   BMIX     =  1.00
     AMIX_MAG =   1.60;   BMIX_MAG =  1.00
     AMIN     =   0.10
     WC   =   100.;   INIMIX=   1;  MIXPRE=   1;  MAXMIX= -45

 Intra band minimization:
   WEIMIN = 0.0000     energy-eigenvalue tresh-hold
   EBREAK =  0.31E-07  absolut break condition
   DEPER  =   0.30     relativ break condition  

   TIME   =   0.40     timestep for ELM

  volume/ion in A,a.u.               =     200.33      1351.92
  Fermi-wavevector in a.u.,A,eV,Ry     =   0.327238  0.618389  1.456972  0.107084
  Thomas-Fermi vector in A             =   1.219791

 Write flags
   LWAVE        =      F    write WAVECAR
   LDOWNSAMPLE  =      F    k-point downsampling of WAVECAR
   LCHARG       =      F    write CHGCAR
   LVTOT        =      F    write LOCPOT, total local potential
   LVHAR        =      F    write LOCPOT, Hartree potential only
   LELF         =      F    write electronic localiz. function (ELF)
   LORBIT       =      0    0 simple, 1 ext, 2 COOP (PROOUT), +10 PAW based schemes


 Dipole corrections
   LMONO  =      F    monopole corrections only (constant potential shift)
   LDIPOL =      F    correct potential (dipole corrections)
   IDIPOL =      0    1-x, 2-y, 3-z, 4-all directions 
   EPSILON=  1.0000000 bulk dielectric constant

 Exchange correlation treatment:
   GGA     =    --    GGA type
   LEXCH   =     8    internal setting for exchange type
   VOSKOWN=      0    Vosko Wilk Nusair interpolation
   LHFCALC =     F    Hartree Fock is set to
   LHFONE  =     F    Hartree Fock one center treatment
   AEXX    =    0.0000 exact exchange contribution

 Linear response parameters
   LEPSILON=     F    determine dielectric tensor
   LRPA    =     F    only Hartree local field effects (RPA)
   LNABLA  =     F    use nabla operator in PAW spheres
   LVEL    =     F    velocity operator in full k-point grid
   LINTERFAST=   F  fast interpolation
   KINTER  =     0    interpolate to denser k-point grid
   CSHIFT  =0.1000    complex shift for real part using Kramers Kronig
   OMEGAMAX=  -1.0    maximum frequency
   DEG_THRESHOLD= 0.2000000E-02 threshold for treating states as degnerate
   RTIME   =   -0.100 relaxation time in fs
  (WPLASMAI=    0.000 imaginary part of plasma frequency in eV, 0.658/RTIME)
   DFIELD  = 0.0000000 0.0000000 0.0000000 field for delta impulse in time

 Orbital magnetization related:
   ORBITALMAG=     F  switch on orbital magnetization
   LCHIMAG   =     F  perturbation theory with respect to B field
   DQ        =  0.001000  dq finite difference perturbation B field
   LLRAUG    =     F  two centre corrections for induced B field



--------------------------------------------------------------------------------------------------------


 Static calculation
 charge density and potential will be updated during run
 non-spin polarized calculation
 Variant of blocked Davidson
 Davidson routine will perform the subspace rotation
 perform sub-space diagonalisation
    after iterative eigenvector-optimisation
 modified Broyden-mixing scheme, WC =      100.0
 initial mixing is a Kerker type mixing with AMIX =  0.4000 and BMIX =      1.0000
 Hartree-type preconditioning will be used
 using additional bands            4
 real space projection scheme for non local part
 use partial core corrections
 calculate Harris-corrections to forces   (improved forces if not selfconsistent)
 use gradient corrections 
 use of overlap-Matrix (Vanderbilt PP)
 Gauss-broadening in eV      SIGMA  =   0.05


--------------------------------------------------------------------------------------------------------


  energy-cutoff  :      400.00
  volume of cell :     1001.67
      direct lattice vectors                 reciprocal lattice vectors
    10.189528500  0.000000000  0.000000000     0.098139968 -0.000339389  0.000096806
     0.034426400  9.954976200  0.000000000     0.000000000  0.100452274 -0.000870026
    -0.009444900  0.085527000  9.874858000     0.000000000  0.000000000  0.101267279

  length of vectors
    10.189528500  9.955035727  9.875232888     0.098140602  0.100456042  0.101267279



 k-points in units of 2pi/SCALE and weight: read from INCAR                         
   0.00000000  0.00000000  0.00000000       1.000

 k-points in reciprocal lattice and weights: read from INCAR                         
   0.00000000  0.00000000  0.00000000       1.000

 position of ions in fractional coordinates (direct lattice) 
   0.57167028  0.40723210  0.50503412
   0.52843096  0.57239357  0.42753120
   0.40759575  0.46806846  0.49258634
   0.49972920  0.40686183  0.34960098
   0.50252282  0.46997180  0.44467677

 position of ions in cartesian coordinates  (Angst):
   5.83430010  4.09717990  4.98714020
   5.40012980  5.73472980  4.22180990
   4.16467000  4.70173980  4.86422020
   5.10270980  4.08020020  3.45226000
   5.13245010  4.71659000  4.39112000



--------------------------------------------------------------------------------------------------------


 k-point  1 :   0.0000 0.0000 0.0000  plane waves:   18171

 maximum and minimum number of plane-waves per node :     18171    18171

 maximum number of plane-waves:     18171
 maximum index in each direction: 
   IXMAX=   16   IYMAX=   16   IZMAX=   16
   IXMIN=  -16   IYMIN=  -16   IZMIN=  -16


 serial   3D FFT for wavefunctions
 parallel 3D FFT for charge:
    minimum data exchange during FFTs selected (reduces bandwidth)


 total amount of memory used by VASP MPI-rank0   274965. kBytes
=======================================================================

   base      :      30000. kBytes
   nonlr-proj:       1230. kBytes
   fftplans  :      86708. kBytes
   grid      :     154683. kBytes
   one-center:         15. kBytes
   wavefun   :       2329. kBytes

     INWAV:  cpu time    0.0000: real time    0.0000
 Broyden mixing: mesh for mixing (old mesh)
   NGX = 33   NGY = 33   NGZ = 33
  (NGX  =140   NGY  =140   NGZ  =128)
  gives a total of  35937 points

 initial charge density was supplied:
 charge density of overlapping atoms calculated
 number of electron       8.0000000 magnetization 
 keeping initial charge density in first step


--------------------------------------------------------------------------------------------------------


 Maximum index for non-local projection operator         4373
 Maximum index for augmentation-charges         3574 (set IRDMAX)


--------------------------------------------------------------------------------------------------------


 First call to EWALD:  gamma=   0.177
 Maximum number of real-space cells 3x 3x 3
 Maximum number of reciprocal cells 3x 3x 3

    FEWALD:  cpu time    0.0007: real time    0.0007


--------------------------------------- Iteration      1(   1)  ---------------------------------------


    POTLOK:  cpu time    1.5662: real time    1.5701
    SETDIJ:  cpu time    0.0063: real time    0.0063
     EDDAV:  cpu time    0.3951: real time    0.3960
       DOS:  cpu time    0.0001: real time    0.0001
    --------------------------------------------
      LOOP:  cpu time    1.9677: real time    1.9726

 eigenvalue-minimisations  :    16
 total energy-change (2. order) : 0.5533756E+02  (-0.1433350E+03)
 number of electron       8.0000000 magnetization 
 augmentation part        8.0000000 magnetization 

 Free energy of the ion-electron system (eV)
  ---------------------------------------------------
  alpha Z        PSCENC =         0.24184663
  Ewald energy   TEWEN  =       129.05419648
  -Hartree energ DENC   =      -244.17550378
  -exchange      EXHF   =         0.00000000
  -V(xc)+E(xc)   XCENC  =        22.01498531
  PAW double counting   =       117.05815612     -117.66307307
  entropy T*S    EENTRO =        -0.00000000
  eigenvalues    EBANDS =       -48.23479916
  atomic energy  EATOM  =       197.04175453
  Solvation  Ediel_sol  =         0.00000000
  ---------------------------------------------------
  free energy    TOTEN  =        55.33756306 eV

  energy without entropy =       55.33756306  energy(sigma->0) =       55.33756306


--------------------------------------------------------------------------------------------------------




--------------------------------------- Iteration      1(   2)  ---------------------------------------


     EDDAV:  cpu time    0.6949: real time    0.6967
       DOS:  cpu time    0.0001: real time    0.0001
    --------------------------------------------
      LOOP:  cpu time    0.6950: real time    0.6968

 eigenvalue-minimisations  :    32
 total energy-change (2. order) :-0.7170151E+02  (-0.7170151E+02)
 number of electron       8.0000000 magnetization 
 augmentation part        8.0000000 magnetization 

 Free energy of the ion-electron system (eV)
  ---------------------------------------------------
  alpha Z        PSCENC =         0.24184663
  Ewald energy   TEWEN  =       129.05419648
  -Hartree energ DENC   =      -244.17550378
  -exchange      EXHF   =         0.00000000
  -V(xc)+E(xc)   XCENC  =        22.01498531
  PAW double counting   =       117.05815612     -117.66307307
  entropy T*S    EENTRO =        -0.00000000
  eigenvalues    EBANDS =      -119.93630585
  atomic energy  EATOM  =       197.04175453
  Solvation  Ediel_sol  =         0.00000000
  ---------------------------------------------------
  free energy    TOTEN  =       -16.36394363 eV

  energy without entropy =      -16.36394363  energy(sigma->0) =      -16.36394363


--------------------------------------------------------------------------------------------------------




--------------------------------------- Iteration      1(   3)  ---------------------------------------


     EDDAV:  cpu time    0.3887: real time    0.3896
       DOS:  cpu time    0.0001: real time    0.0001
    --------------------------------------------
      LOOP:  cpu time    0.3888: real time    0.3898

 eigenvalue-minimisations  :    16
 total energy-change (2. order) :-0.1055888E+02  (-0.1055888E+02)
 number of electron       8.0000000 magnetization 
 augmentation part        8.0000000 magnetization 

 Free energy of the ion-electron system (eV)
  ---------------------------------------------------
  alpha Z        PSCENC =         0.24184663
  Ewald energy   TEWEN  =       129.05419648
  -Hartree energ DENC   =      -244.17550378
  -exchange      EXHF   =         0.00000000
  -V(xc)+E(xc)   XCENC  =        22.01498531
  PAW double counting   =       117.05815612     -117.66307307
  entropy T*S    EENTRO =        -0.00000000
  eigenvalues    EBANDS =      -130.49518480
  atomic energy  EATOM  =       197.04175453
  Solvation  Ediel_sol  =         0.00000000
  ---------------------------------------------------
  free energy    TOTEN  =       -26.92282258 eV

  energy without entropy =      -26.92282258  energy(sigma->0) =      -26.92282258


--------------------------------------------------------------------------------------------------------




--------------------------------------- Iteration      1(   4)  ---------------------------------------


     EDDAV:  cpu time    0.7050: real time    0.7067
       DOS:  cpu time    0.0001: real time    0.0001
    --------------------------------------------
      LOOP:  cpu time    0.7051: real time    0.7068

 eigenvalue-minimisations  :    32
 total energy-change (2. order) :-0.5063055E+00  (-0.5063055E+00)
 number of electron       8.0000000 magnetization 
 augmentation part        8.0000000 magnetization 

 Free energy of the ion-electron system (eV)
  ---------------------------------------------------
  alpha Z        PSCENC =         0.24184663
  Ewald energy   TEWEN  =       129.05419648
  -Hartree energ DENC   =      -244.17550378
  -exchange      EXHF   =         0.00000000
  -V(xc)+E(xc)   XCENC  =        22.01498531
  PAW double counting   =       117.05815612     -117.66307307
  entropy T*S    EENTRO =        -0.00000000
  eigenvalues    EBANDS =      -131.00149031
  atomic energy  EATOM  =       197.04175453
  Solvation  Ediel_sol  =         0.00000000
  ---------------------------------------------------
  free energy    TOTEN  =       -27.42912809 eV

  energy without entropy =      -27.42912809  energy(sigma->0) =      -27.42912809


--------------------------------------------------------------------------------------------------------




--------------------------------------- Iteration      1(   5)  ---------------------------------------


     EDDAV:  cpu time    0.6865: real time    0.6881
       DOS:  cpu time    0.0001: real time    0.0001
    CHARGE:  cpu time    0.0844: real time    0.0846
    MIXING:  cpu time    0.0324: real time    0.0325
    --------------------------------------------
      LOOP:  cpu time    0.8034: real time    0.8053

 eigenvalue-minimisations  :    32
 total energy-change (2. order) :-0.1944933E-03  (-0.1944933E-03)
 number of electron       8.0000004 magnetization 
 augmentation part        0.2257073 magnetization 

 Broyden mixing:
  rms(total) = 0.87360E+00    rms(broyden)= 0.87341E+00
  rms(prec ) = 0.12343E+01
  weight for this iteration     100.00

 Free energy of the ion-electron system (eV)
  ---------------------------------------------------
  alpha Z        PSCENC =         0.24184663
  Ewald energy   TEWEN  =       129.05419648
  -Hartree energ DENC   =      -244.17550378
  -exchange      EXHF   =         0.00000000
  -V(xc)+E(xc)   XCENC  =        22.01498531
  PAW double counting   =       117.05815612     -117.66307307
  entropy T*S    EENTRO =        -0.00000000
  eigenvalues    EBANDS =      -131.00168480
  atomic energy  EATOM  =       197.04175453
  Solvation  Ediel_sol  =         0.00000000
  ---------------------------------------------------
  free energy    TOTEN  =       -27.42932258 eV

  energy without entropy =      -27.42932258  energy(sigma->0) =      -27.42932258


--------------------------------------------------------------------------------------------------------




--------------------------------------- Iteration      1(   6)  ---------------------------------------


    POTLOK:  cpu time    1.5674: real time    1.5711
    SETDIJ:  cpu time    0.0063: real time    0.0063
     EDDAV:  cpu time    0.5646: real time    0.5660
       DOS:  cpu time    0.0001: real time    0.0001
    CHARGE:  cpu time    0.0812: real time    0.0814
    MIXING:  cpu time    0.0330: real time    0.0331
    --------------------------------------------
      LOOP:  cpu time    2.2527: real time    2.2580

 eigenvalue-minimisations  :    24
 total energy-change (2. order) : 0.2895845E+01  (-0.8912433E+00)
 number of electron       8.0000005 magnetization 
 augmentation part        0.1974421 magnetization 

 Broyden mixing:
  rms(total) = 0.44570E+00    rms(broyden)= 0.44560E+00
  rms(prec ) = 0.55850E+00
  weight for this iteration     100.00

 eigenvalues of (default mixing * dielectric matrix)
  average eigenvalue GAMMA=   1.1970
  1.1970

 Free energy of the ion-electron system (eV)
  ---------------------------------------------------
  alpha Z        PSCENC =         0.24184663
  Ewald energy   TEWEN  =       129.05419648
  -Hartree energ DENC   =      -263.93295372
  -exchange      EXHF   =         0.00000000
  -V(xc)+E(xc)   XCENC  =        23.21244468
  PAW double counting   =       238.81976277     -239.60038165
  entropy T*S    EENTRO =        -0.00000000
  eigenvalues    EBANDS =      -109.37014704
  atomic energy  EATOM  =       197.04175453
  Solvation  Ediel_sol  =         0.00000000
  ---------------------------------------------------
  free energy    TOTEN  =       -24.53347733 eV

  energy without entropy =      -24.53347733  energy(sigma->0) =      -24.53347733


--------------------------------------------------------------------------------------------------------




--------------------------------------- Iteration      1(   7)  ---------------------------------------


    POTLOK:  cpu time    1.6089: real time    1.6127
    SETDIJ:  cpu time    0.0064: real time    0.0064
     EDDAV:  cpu time    0.7374: real time    0.7391
       DOS:  cpu time    0.0001: real time    0.0001
    CHARGE:  cpu time    0.0821: real time    0.0823
    MIXING:  cpu time    0.0352: real time    0.0353
    --------------------------------------------
      LOOP:  cpu time    2.4702: real time    2.4761

 eigenvalue-minimisations  :    32
 total energy-change (2. order) : 0.4798791E+00  (-0.7351571E-01)
 number of electron       8.0000005 magnetization 
 augmentation part        0.1890323 magnetization 

 Broyden mixing:
  rms(total) = 0.22782E+00    rms(broyden)= 0.22779E+00
  rms(prec ) = 0.27995E+00
  weight for this iteration     100.00

 eigenvalues of (default mixing * dielectric matrix)
  average eigenvalue GAMMA=   1.6978
  1.2513  2.1443

 Free energy of the ion-electron system (eV)
  ---------------------------------------------------
  alpha Z        PSCENC =         0.24184663
  Ewald energy   TEWEN  =       129.05419648
  -Hartree energ DENC   =      -273.96265555
  -exchange      EXHF   =         0.00000000
  -V(xc)+E(xc)   XCENC  =        23.96733683
  PAW double counting   =       366.18658430     -366.99511877
  entropy T*S    EENTRO =        -0.00000000
  eigenvalues    EBANDS =       -99.58754270
  atomic energy  EATOM  =       197.04175453
  Solvation  Ediel_sol  =         0.00000000
  ---------------------------------------------------
  free energy    TOTEN  =       -24.05359824 eV

  energy without entropy =      -24.05359824  energy(sigma->0) =      -24.05359824


--------------------------------------------------------------------------------------------------------




--------------------------------------- Iteration      1(   8)  ---------------------------------------


    POTLOK:  cpu time    1.6222: real time    1.6260
    SETDIJ:  cpu time    0.0064: real time    0.0064
     EDDAV:  cpu time    0.7476: real time    0.7493
       DOS:  cpu time    0.0001: real time    0.0001
    CHARGE:  cpu time    0.0811: real time    0.0813
    MIXING:  cpu time    0.0350: real time    0.0351
    --------------------------------------------
      LOOP:  cpu time    2.4923: real time    2.4982

 eigenvalue-minimisations  :    32
 total energy-change (2. order) : 0.1637746E+00  (-0.1827276E-01)
 number of electron       8.0000005 magnetization 
 augmentation part        0.1864543 magnetization 

 Broyden mixing:
  rms(total) = 0.27203E-01    rms(broyden)= 0.27180E-01
  rms(prec ) = 0.55417E-01
  weight for this iteration     100.00

 eigenvalues of (default mixing * dielectric matrix)
  average eigenvalue GAMMA=   1.5479
  2.1483  1.1148  1.3807

 Free energy of the ion-electron system (eV)
  ---------------------------------------------------
  alpha Z        PSCENC =         0.24184663
  Ewald energy   TEWEN  =       129.05419648
  -Hartree energ DENC   =      -280.96486703
  -exchange      EXHF   =         0.00000000
  -V(xc)+E(xc)   XCENC  =        24.59229509
  PAW double counting   =       479.89596132     -480.69002605
  entropy T*S    EENTRO =        -0.00000000
  eigenvalues    EBANDS =       -93.06098457
  atomic energy  EATOM  =       197.04175453
  Solvation  Ediel_sol  =         0.00000000
  ---------------------------------------------------
  free energy    TOTEN  =       -23.88982361 eV

  energy without entropy =      -23.88982361  energy(sigma->0) =      -23.88982361


--------------------------------------------------------------------------------------------------------




--------------------------------------- Iteration      1(   9)  ---------------------------------------


    POTLOK:  cpu time    1.6155: real time    1.6193
    SETDIJ:  cpu time    0.0065: real time    0.0065
     EDDAV:  cpu time    0.4156: real time    0.4166
       DOS:  cpu time    0.0001: real time    0.0001
    CHARGE:  cpu time    0.0853: real time    0.0855
    MIXING:  cpu time    0.0357: real time    0.0358
    --------------------------------------------
      LOOP:  cpu time    2.1586: real time    2.1637

 eigenvalue-minimisations  :    16
 total energy-change (2. order) : 0.6854679E-02  (-0.3414364E-03)
 number of electron       8.0000005 magnetization 
 augmentation part        0.1859528 magnetization 

 Broyden mixing:
  rms(total) = 0.16187E-01    rms(broyden)= 0.16184E-01
  rms(prec ) = 0.36687E-01
  weight for this iteration     100.00

 eigenvalues of (default mixing * dielectric matrix)
  average eigenvalue GAMMA=   1.8881
  2.9075  2.4530  0.9943  1.1977

 Free energy of the ion-electron system (eV)
  ---------------------------------------------------
  alpha Z        PSCENC =         0.24184663
  Ewald energy   TEWEN  =       129.05419648
  -Hartree energ DENC   =      -282.28791830
  -exchange      EXHF   =         0.00000000
  -V(xc)+E(xc)   XCENC  =        24.66268142
  PAW double counting   =       477.28228266     -478.07430219
  entropy T*S    EENTRO =        -0.00000000
  eigenvalues    EBANDS =       -91.80351016
  atomic energy  EATOM  =       197.04175453
  Solvation  Ediel_sol  =         0.00000000
  ---------------------------------------------------
  free energy    TOTEN  =       -23.88296893 eV

  energy without entropy =      -23.88296893  energy(sigma->0) =      -23.88296893


--------------------------------------------------------------------------------------------------------




--------------------------------------- Iteration      1(  10)  ---------------------------------------


    POTLOK:  cpu time    1.5580: real time    1.5616
    SETDIJ:  cpu time    0.0066: real time    0.0066
     EDDAV:  cpu time    0.4241: real time    0.4252
       DOS:  cpu time    0.0001: real time    0.0001
    CHARGE:  cpu time    0.0840: real time    0.0842
    MIXING:  cpu time    0.0373: real time    0.0374
    --------------------------------------------
      LOOP:  cpu time    2.1102: real time    2.1151

 eigenvalue-minimisations  :    16
 total energy-change (2. order) : 0.8862338E-02  (-0.5528297E-03)
 number of electron       8.0000005 magnetization 
 augmentation part        0.1857139 magnetization 

 Broyden mixing:
  rms(total) = 0.69373E-02    rms(broyden)= 0.69363E-02
  rms(prec ) = 0.16460E-01
  weight for this iteration     100.00

 eigenvalues of (default mixing * dielectric matrix)
  average eigenvalue GAMMA=   2.0378
  3.3259  1.0118  1.2026  2.3244  2.3244

 Free energy of the ion-electron system (eV)
  ---------------------------------------------------
  alpha Z        PSCENC =         0.24184663
  Ewald energy   TEWEN  =       129.05419648
  -Hartree energ DENC   =      -283.93114501
  -exchange      EXHF   =         0.00000000
  -V(xc)+E(xc)   XCENC  =        24.73612106
  PAW double counting   =       468.25401986     -469.04201305
  entropy T*S    EENTRO =        -0.00000000
  eigenvalues    EBANDS =       -90.22888708
  atomic energy  EATOM  =       197.04175453
  Solvation  Ediel_sol  =         0.00000000
  ---------------------------------------------------
  free energy    TOTEN  =       -23.87410659 eV

  energy without entropy =      -23.87410659  energy(sigma->0) =      -23.87410659


--------------------------------------------------------------------------------------------------------




--------------------------------------- Iteration      1(  11)  ---------------------------------------


    POTLOK:  cpu time    1.4425: real time    1.4459
    SETDIJ:  cpu time    0.0064: real time    0.0064
     EDDAV:  cpu time    0.5829: real time    0.5843
       DOS:  cpu time    0.0001: real time    0.0001
    CHARGE:  cpu time    0.0795: real time    0.0797
    MIXING:  cpu time    0.0369: real time    0.0370
    --------------------------------------------
      LOOP:  cpu time    2.1482: real time    2.1533

 eigenvalue-minimisations  :    24
 total energy-change (2. order) :-0.8182450E-02  (-0.3556358E-03)
 number of electron       8.0000005 magnetization 
 augmentation part        0.1853078 magnetization 

 Broyden mixing:
  rms(total) = 0.70393E-02    rms(broyden)= 0.70386E-02
  rms(prec ) = 0.10863E-01
  weight for this iteration     100.00

 eigenvalues of (default mixing * dielectric matrix)
  average eigenvalue GAMMA=   2.1259
  4.4694  2.8412  2.2459  1.2211  0.9890  0.9890

 Free energy of the ion-electron system (eV)
  ---------------------------------------------------
  alpha Z        PSCENC =         0.24184663
  Ewald energy   TEWEN  =       129.05419648
  -Hartree energ DENC   =      -284.91742079
  -exchange      EXHF   =         0.00000000
  -V(xc)+E(xc)   XCENC  =        24.77627255
  PAW double counting   =       471.80157967     -472.59063609
  entropy T*S    EENTRO =        -0.00000000
  eigenvalues    EBANDS =       -89.28988201
  atomic energy  EATOM  =       197.04175453
  Solvation  Ediel_sol  =         0.00000000
  ---------------------------------------------------
  free energy    TOTEN  =       -23.88228904 eV

  energy without entropy =      -23.88228904  energy(sigma->0) =      -23.88228904


--------------------------------------------------------------------------------------------------------




--------------------------------------- Iteration      1(  12)  ---------------------------------------


    POTLOK:  cpu time    1.4318: real time    1.4352
    SETDIJ:  cpu time    0.0065: real time    0.0065
     EDDAV:  cpu time    0.7341: real time    0.7359
       DOS:  cpu time    0.0001: real time    0.0001
    CHARGE:  cpu time    0.0851: real time    0.0853
    MIXING:  cpu time    0.0376: real time    0.0377
    --------------------------------------------
      LOOP:  cpu time    2.2953: real time    2.3007

 eigenvalue-minimisations  :    32
 total energy-change (2. order) :-0.2867460E-02  (-0.5758647E-04)
 number of electron       8.0000005 magnetization 
 augmentation part        0.1854638 magnetization 

 Broyden mixing:
  rms(total) = 0.21530E-02    rms(broyden)= 0.21529E-02
  rms(prec ) = 0.49555E-02
  weight for this iteration     100.00

 eigenvalues of (default mixing * dielectric matrix)
  average eigenvalue GAMMA=   2.3024
  5.1032  2.9329  2.7549  2.0507  1.2258  1.0247  1.0247

 Free energy of the ion-electron system (eV)
  ---------------------------------------------------
  alpha Z        PSCENC =         0.24184663
  Ewald energy   TEWEN  =       129.05419648
  -Hartree energ DENC   =      -284.61845920
  -exchange      EXHF   =         0.00000000
  -V(xc)+E(xc)   XCENC  =        24.74682304
  PAW double counting   =       467.71023876     -468.49895187
  entropy T*S    EENTRO =        -0.00000000
  eigenvalues    EBANDS =       -89.56260487
  atomic energy  EATOM  =       197.04175453
  Solvation  Ediel_sol  =         0.00000000
  ---------------------------------------------------
  free energy    TOTEN  =       -23.88515650 eV

  energy without entropy =      -23.88515650  energy(sigma->0) =      -23.88515650


--------------------------------------------------------------------------------------------------------




--------------------------------------- Iteration      1(  13)  ---------------------------------------


    POTLOK:  cpu time    1.3984: real time    1.4017
    SETDIJ:  cpu time    0.0064: real time    0.0064
     EDDAV:  cpu time    0.7400: real time    0.7417
       DOS:  cpu time    0.0001: real time    0.0001
    CHARGE:  cpu time    0.0826: real time    0.0828
    MIXING:  cpu time    0.0387: real time    0.0388
    --------------------------------------------
      LOOP:  cpu time    2.2660: real time    2.2714

 eigenvalue-minimisations  :    32
 total energy-change (2. order) :-0.4036974E-02  (-0.8833605E-04)
 number of electron       8.0000005 magnetization 
 augmentation part        0.1854452 magnetization 

 Broyden mixing:
  rms(total) = 0.14998E-02    rms(broyden)= 0.14997E-02
  rms(prec ) = 0.24517E-02
  weight for this iteration     100.00

 eigenvalues of (default mixing * dielectric matrix)
  average eigenvalue GAMMA=   2.3399
  5.9431  3.6936  2.4876  2.2772  1.2444  1.0717  1.0098  0.9920

 Free energy of the ion-electron system (eV)
  ---------------------------------------------------
  alpha Z        PSCENC =         0.24184663
  Ewald energy   TEWEN  =       129.05419648
  -Hartree energ DENC   =      -284.67049222
  -exchange      EXHF   =         0.00000000
  -V(xc)+E(xc)   XCENC  =        24.74474550
  PAW double counting   =       469.10549652     -469.89358326
  entropy T*S    EENTRO =        -0.00000000
  eigenvalues    EBANDS =       -89.51315766
  atomic energy  EATOM  =       197.04175453
  Solvation  Ediel_sol  =         0.00000000
  ---------------------------------------------------
  free energy    TOTEN  =       -23.88919348 eV

  energy without entropy =      -23.88919348  energy(sigma->0) =      -23.88919348


--------------------------------------------------------------------------------------------------------




--------------------------------------- Iteration      1(  14)  ---------------------------------------


    POTLOK:  cpu time    1.3821: real time    1.3853
    SETDIJ:  cpu time    0.0064: real time    0.0064
     EDDAV:  cpu time    0.7414: real time    0.7432
       DOS:  cpu time    0.0001: real time    0.0001
    CHARGE:  cpu time    0.0827: real time    0.0829
    MIXING:  cpu time    0.0399: real time    0.0400
    --------------------------------------------
      LOOP:  cpu time    2.2526: real time    2.2579

 eigenvalue-minimisations  :    32
 total energy-change (2. order) :-0.6787289E-03  (-0.6635331E-05)
 number of electron       8.0000005 magnetization 
 augmentation part        0.1854350 magnetization 

 Broyden mixing:
  rms(total) = 0.70919E-03    rms(broyden)= 0.70908E-03
  rms(prec ) = 0.13789E-02
  weight for this iteration     100.00

 eigenvalues of (default mixing * dielectric matrix)
  average eigenvalue GAMMA=   2.5841
  7.1446  4.4448  2.9434  2.3955  2.0410  1.2405  0.9945  0.9945  1.0579

 Free energy of the ion-electron system (eV)
  ---------------------------------------------------
  alpha Z        PSCENC =         0.24184663
  Ewald energy   TEWEN  =       129.05419648
  -Hartree energ DENC   =      -284.62708244
  -exchange      EXHF   =         0.00000000
  -V(xc)+E(xc)   XCENC  =        24.73944472
  PAW double counting   =       468.34287909     -469.13122963
  entropy T*S    EENTRO =        -0.00000000
  eigenvalues    EBANDS =       -89.55168157
  atomic energy  EATOM  =       197.04175453
  Solvation  Ediel_sol  =         0.00000000
  ---------------------------------------------------
  free energy    TOTEN  =       -23.88987220 eV

  energy without entropy =      -23.88987220  energy(sigma->0) =      -23.88987220


--------------------------------------------------------------------------------------------------------




--------------------------------------- Iteration      1(  15)  ---------------------------------------


    POTLOK:  cpu time    1.3897: real time    1.3930
    SETDIJ:  cpu time    0.0064: real time    0.0064
     EDDAV:  cpu time    0.4227: real time    0.4237
       DOS:  cpu time    0.0001: real time    0.0001
    CHARGE:  cpu time    0.0831: real time    0.0833
    MIXING:  cpu time    0.0422: real time    0.0423
    --------------------------------------------
      LOOP:  cpu time    1.9443: real time    1.9489

 eigenvalue-minimisations  :    16
 total energy-change (2. order) :-0.4513119E-03  (-0.3915069E-05)
 number of electron       8.0000005 magnetization 
 augmentation part        0.1854366 magnetization 

 Broyden mixing:
  rms(total) = 0.42205E-03    rms(broyden)= 0.42204E-03
  rms(prec ) = 0.59560E-03
  weight for this iteration     100.00

 eigenvalues of (default mixing * dielectric matrix)
  average eigenvalue GAMMA=   2.4566
  7.1855  4.5314  2.8060  2.4381  2.1723  1.2751  1.1730  0.9852  0.9852  1.0141

 Free energy of the ion-electron system (eV)
  ---------------------------------------------------
  alpha Z        PSCENC =         0.24184663
  Ewald energy   TEWEN  =       129.05419648
  -Hartree energ DENC   =      -284.63738602
  -exchange      EXHF   =         0.00000000
  -V(xc)+E(xc)   XCENC  =        24.73982555
  PAW double counting   =       468.15025675     -468.93857835
  entropy T*S    EENTRO =        -0.00000000
  eigenvalues    EBANDS =       -89.54223909
  atomic energy  EATOM  =       197.04175453
  Solvation  Ediel_sol  =         0.00000000
  ---------------------------------------------------
  free energy    TOTEN  =       -23.89032352 eV

  energy without entropy =      -23.89032352  energy(sigma->0) =      -23.89032352


--------------------------------------------------------------------------------------------------------




--------------------------------------- Iteration      1(  16)  ---------------------------------------


    POTLOK:  cpu time    1.3953: real time    1.3986
    SETDIJ:  cpu time    0.0065: real time    0.0065
     EDDAV:  cpu time    0.7517: real time    0.7535
       DOS:  cpu time    0.0001: real time    0.0001
    CHARGE:  cpu time    0.0844: real time    0.0846
    MIXING:  cpu time    0.0415: real time    0.0416
    --------------------------------------------
      LOOP:  cpu time    2.2795: real time    2.2848

 eigenvalue-minimisations  :    32
 total energy-change (2. order) :-0.5509808E-04  (-0.1891013E-06)
 number of electron       8.0000005 magnetization 
 augmentation part        0.1854318 magnetization 

 Broyden mixing:
  rms(total) = 0.15351E-03    rms(broyden)= 0.15348E-03
  rms(prec ) = 0.27809E-03
  weight for this iteration     100.00

 eigenvalues of (default mixing * dielectric matrix)
  average eigenvalue GAMMA=   2.6718
  8.2975  4.9346  3.8628  2.4891  2.4714  2.0220  1.2606  1.1189  1.0091  0.9618
  0.9618

 Free energy of the ion-electron system (eV)
  ---------------------------------------------------
  alpha Z        PSCENC =         0.24184663
  Ewald energy   TEWEN  =       129.05419648
  -Hartree energ DENC   =      -284.64953654
  -exchange      EXHF   =         0.00000000
  -V(xc)+E(xc)   XCENC  =        24.74063946
  PAW double counting   =       468.32784709     -469.11618962
  entropy T*S    EENTRO =        -0.00000000
  eigenvalues    EBANDS =       -89.53093663
  atomic energy  EATOM  =       197.04175453
  Solvation  Ediel_sol  =         0.00000000
  ---------------------------------------------------
  free energy    TOTEN  =       -23.89037861 eV

  energy without entropy =      -23.89037861  energy(sigma->0) =      -23.89037861


--------------------------------------------------------------------------------------------------------




--------------------------------------- Iteration      1(  17)  ---------------------------------------


    POTLOK:  cpu time    1.4767: real time    1.4803
    SETDIJ:  cpu time    0.0064: real time    0.0065
     EDDAV:  cpu time    0.4146: real time    0.4156
       DOS:  cpu time    0.0001: real time    0.0001
    CHARGE:  cpu time    0.0840: real time    0.0842
    MIXING:  cpu time    0.0423: real time    0.0424
    --------------------------------------------
      LOOP:  cpu time    2.0241: real time    2.0290

 eigenvalue-minimisations  :    16
 total energy-change (2. order) :-0.4810610E-04  (-0.2659447E-06)
 number of electron       8.0000005 magnetization 
 augmentation part        0.1854259 magnetization 

 Broyden mixing:
  rms(total) = 0.83466E-04    rms(broyden)= 0.83450E-04
  rms(prec ) = 0.14122E-03
  weight for this iteration     100.00

 eigenvalues of (default mixing * dielectric matrix)
  average eigenvalue GAMMA=   2.5917
  8.3897  5.2035  3.6234  2.7443  2.2527  1.8017  1.8017  1.2498  0.9696  0.9696
  1.0472  1.0472

 Free energy of the ion-electron system (eV)
  ---------------------------------------------------
  alpha Z        PSCENC =         0.24184663
  Ewald energy   TEWEN  =       129.05419648
  -Hartree energ DENC   =      -284.66043576
  -exchange      EXHF   =         0.00000000
  -V(xc)+E(xc)   XCENC  =        24.74111813
  PAW double counting   =       468.32537954     -469.11375200
  entropy T*S    EENTRO =        -0.00000000
  eigenvalues    EBANDS =       -89.52053426
  atomic energy  EATOM  =       197.04175453
  Solvation  Ediel_sol  =         0.00000000
  ---------------------------------------------------
  free energy    TOTEN  =       -23.89042672 eV

  energy without entropy =      -23.89042672  energy(sigma->0) =      -23.89042672


--------------------------------------------------------------------------------------------------------




--------------------------------------- Iteration      1(  18)  ---------------------------------------


    POTLOK:  cpu time    1.4957: real time    1.4993
    SETDIJ:  cpu time    0.0065: real time    0.0065
     EDDAV:  cpu time    0.7467: real time    0.7485
       DOS:  cpu time    0.0001: real time    0.0001
    CHARGE:  cpu time    0.0831: real time    0.0833
    MIXING:  cpu time    0.0437: real time    0.0438
    --------------------------------------------
      LOOP:  cpu time    2.3758: real time    2.3815

 eigenvalue-minimisations  :    32
 total energy-change (2. order) :-0.4355437E-05  (-0.4642720E-07)
 number of electron       8.0000005 magnetization 
 augmentation part        0.1854318 magnetization 

 Broyden mixing:
  rms(total) = 0.42371E-04    rms(broyden)= 0.42362E-04
  rms(prec ) = 0.71848E-04
  weight for this iteration     100.00

 eigenvalues of (default mixing * dielectric matrix)
  average eigenvalue GAMMA=   2.5902
  8.5105  5.3733  3.7659  2.9109  2.4085  2.3596  1.9737  1.2735  1.1862  1.0011
  0.9943  0.9943  0.9211

 Free energy of the ion-electron system (eV)
  ---------------------------------------------------
  alpha Z        PSCENC =         0.24184663
  Ewald energy   TEWEN  =       129.05419648
  -Hartree energ DENC   =      -284.65232263
  -exchange      EXHF   =         0.00000000
  -V(xc)+E(xc)   XCENC  =        24.74060560
  PAW double counting   =       468.29857149     -469.08691374
  entropy T*S    EENTRO =        -0.00000000
  eigenvalues    EBANDS =       -89.52816943
  atomic energy  EATOM  =       197.04175453
  Solvation  Ediel_sol  =         0.00000000
  ---------------------------------------------------
  free energy    TOTEN  =       -23.89043108 eV

  energy without entropy =      -23.89043108  energy(sigma->0) =      -23.89043108


--------------------------------------------------------------------------------------------------------




--------------------------------------- Iteration      1(  19)  ---------------------------------------


    POTLOK:  cpu time    1.5542: real time    1.5579
    SETDIJ:  cpu time    0.0064: real time    0.0065
     EDDAV:  cpu time    0.4127: real time    0.4137
       DOS:  cpu time    0.0001: real time    0.0001
    CHARGE:  cpu time    0.0836: real time    0.0838
    MIXING:  cpu time    0.0452: real time    0.0453
    --------------------------------------------
      LOOP:  cpu time    2.1022: real time    2.1072

 eigenvalue-minimisations  :    16
 total energy-change (2. order) :-0.2926667E-05  (-0.9098851E-08)
 number of electron       8.0000005 magnetization 
 augmentation part        0.1854309 magnetization 

 Broyden mixing:
  rms(total) = 0.22041E-04    rms(broyden)= 0.22041E-04
  rms(prec ) = 0.36593E-04
  weight for this iteration     100.00

 eigenvalues of (default mixing * dielectric matrix)
  average eigenvalue GAMMA=   2.5541
  8.5555  5.4006  4.1464  3.0765  2.5681  2.2136  1.7938  1.7030  1.2477  0.9959
  0.9959  0.9630  1.0165  1.0814

 Free energy of the ion-electron system (eV)
  ---------------------------------------------------
  alpha Z        PSCENC =         0.24184663
  Ewald energy   TEWEN  =       129.05419648
  -Hartree energ DENC   =      -284.65384992
  -exchange      EXHF   =         0.00000000
  -V(xc)+E(xc)   XCENC  =        24.74067776
  PAW double counting   =       468.31029685     -469.09863625
  entropy T*S    EENTRO =        -0.00000000
  eigenvalues    EBANDS =       -89.52672008
  atomic energy  EATOM  =       197.04175453
  Solvation  Ediel_sol  =         0.00000000
  ---------------------------------------------------
  free energy    TOTEN  =       -23.89043400 eV

  energy without entropy =      -23.89043400  energy(sigma->0) =      -23.89043400


--------------------------------------------------------------------------------------------------------




--------------------------------------- Iteration      1(  20)  ---------------------------------------


    POTLOK:  cpu time    1.5447: real time    1.5484
    SETDIJ:  cpu time    0.0064: real time    0.0064
     EDDAV:  cpu time    0.7390: real time    0.7408
       DOS:  cpu time    0.0001: real time    0.0001
    --------------------------------------------
      LOOP:  cpu time    2.2903: real time    2.2957

 eigenvalue-minimisations  :    32
 total energy-change (2. order) :-0.4956128E-06  (-0.3471946E-08)
 number of electron       8.0000005 magnetization 
 augmentation part        0.1854309 magnetization 

 Free energy of the ion-electron system (eV)
  ---------------------------------------------------
  alpha Z        PSCENC =         0.24184663
  Ewald energy   TEWEN  =       129.05419648
  -Hartree energ DENC   =      -284.65504125
  -exchange      EXHF   =         0.00000000
  -V(xc)+E(xc)   XCENC  =        24.74073914
  PAW double counting   =       468.31056280     -469.09891051
  entropy T*S    EENTRO =        -0.00000000
  eigenvalues    EBANDS =       -89.52558232
  atomic energy  EATOM  =       197.04175453
  Solvation  Ediel_sol  =         0.00000000
  ---------------------------------------------------
  free energy    TOTEN  =       -23.89043450 eV

  energy without entropy =      -23.89043450  energy(sigma->0) =      -23.89043450


--------------------------------------------------------------------------------------------------------




 average (electrostatic) potential at core
  the test charge radii are     0.5201  0.6991
  (the norm of the test charge is              1.0000)
       1 -41.4141       2 -41.8564       3 -41.6380       4 -41.2152       5 -57.9746



 E-fermi :  -8.4518     XC(G=0):  -0.6988     alpha+bet : -0.2103


 k-point     1 :       0.0000    0.0000    0.0000
  band No.  band energies     occupation 
      1     -16.9110      2.00000
      2      -9.8896      2.00000
      3      -9.2717      2.00000
      4      -8.6905      2.00000
      5      -0.5353      0.00000
      6       0.9707      0.00000
      7       1.0132      0.00000
      8       1.0532      0.00000


--------------------------------------------------------------------------------------------------------


 soft charge-density along one line, spin component           1
         0         1         2         3         4         5         6         7         8         9
 total charge-density along one line

 pseudopotential strength for first ion, spin component:           1
 -2.340  -4.033  -0.001   0.001   0.001
 -4.033  -6.862  -0.003   0.003   0.003
 -0.001  -0.003  -0.338  -0.001  -0.002
  0.001   0.003  -0.001  -0.338   0.002
  0.001   0.003  -0.002   0.002  -0.338
 total augmentation occupancy for first ion, spin component:           1
  3.491  -0.631   0.236  -0.220  -0.260
 -0.631   0.128  -0.042   0.043   0.049
  0.236  -0.042   0.021  -0.012  -0.015
 -0.220   0.043  -0.012   0.021   0.014
 -0.260   0.049  -0.015   0.014   0.025


------------------------ aborting loop because EDIFF is reached ----------------------------------------


    CHARGE:  cpu time    0.0847: real time    0.0849
    FORLOC:  cpu time    0.1085: real time    0.1088
    FORNL :  cpu time    0.1401: real time    0.1404
    STRESS:  cpu time    0.5240: real time    0.5252
    FORCOR:  cpu time    1.5994: real time    1.6032
    FORHAR:  cpu time    0.5237: real time    0.5250
    MIXING:  cpu time    0.0461: real time    0.0462
    OFIELD:  cpu time    0.0000: real time    0.0000

  FORCE on cell =-STRESS in cart. coord.  units (eV):
  Direction    XX          YY          ZZ          XY          YZ          ZX
  --------------------------------------------------------------------------------------
  Alpha Z     0.24185     0.24185     0.24185
  Ewald      37.44666    56.11189    35.49559    -4.73370    -0.13009    -4.84026
  Hartree    91.37296    98.59805    94.68334    -1.64634     0.56777    -0.97114
  E(xc)     -27.23154   -27.15001   -27.24275    -0.03319     0.00806    -0.01749
  Local    -187.89154  -210.98040  -191.02839     5.79470    -0.83296     4.67353
  n-local   -15.97390   -15.87764   -15.86062    -0.03631     0.04707     0.04078
  augment     0.11562     0.09621     0.13117     0.00286     0.00421     0.00931
  Kinetic   102.33306    98.17153   103.07946     1.54565    -0.36388     0.95282
  Fock        0.00000     0.00000     0.00000     0.00000     0.00000     0.00000
  -------------------------------------------------------------------------------------
  Total       0.41316    -0.78852    -0.50035     0.89367    -0.69982    -0.15244
  in kB       0.66085    -1.26123    -0.80031     1.42943    -1.11937    -0.24383
  external pressure =       -0.47 kB  Pullay stress =        0.00 kB


 VOLUME and BASIS-vectors are now :
 -----------------------------------------------------------------------------
  energy-cutoff  :      400.00
  volume of cell :     1001.67
      direct lattice vectors                 reciprocal lattice vectors
    10.189528500  0.000000000  0.000000000     0.098139968 -0.000339389  0.000096806
     0.034426400  9.954976200  0.000000000     0.000000000  0.100452274 -0.000870026
    -0.009444900  0.085527000  9.874858000     0.000000000  0.000000000  0.101267279

  length of vectors
    10.189528500  9.955035727  9.875232888     0.098140602  0.100456042  0.101267279


 FORCES acting on ions
    electron-ion (+dipol)            ewald-force                    non-local-force                 convergence-correction
 -----------------------------------------------------------------------------------------------
   -.334E+02 0.287E+02 -.283E+02   0.367E+02 -.310E+02 0.313E+02   -.330E+01 0.309E+01 -.275E+01   -.387E-04 0.548E-04 -.438E-04
   -.136E+02 -.516E+02 0.853E+01   0.157E+02 0.581E+02 -.971E+01   -.141E+01 -.576E+01 0.938E+00   -.151E-04 -.836E-04 0.156E-04
   0.483E+02 0.255E+00 -.237E+02   -.541E+02 -.477E+00 0.265E+02   0.520E+01 0.570E-01 -.255E+01   0.580E-04 0.387E-05 -.393E-04
   0.133E+01 0.283E+02 0.427E+02   -.169E+01 -.301E+02 -.462E+02   0.662E-01 0.288E+01 0.401E+01   -.179E-05 0.524E-04 0.692E-04
   -.311E+01 -.395E+01 0.154E+01   0.344E+01 0.346E+01 -.186E+01   -.642E-01 -.196E+01 -.430E+00   0.733E-05 0.346E-04 -.298E-05
 -----------------------------------------------------------------------------------------------
   -.494E+00 0.170E+01 0.771E+00   0.622E-14 -.355E-14 0.000E+00   0.494E+00 -.170E+01 -.772E+00   0.972E-05 0.621E-04 -.130E-05


 POSITION                                       TOTAL-FORCE (eV/Angst)
 -----------------------------------------------------------------------------------
      5.83430      4.09718      4.98714        -0.015949      0.817345      0.260143
      5.40013      5.73473      4.22181         0.684118      0.751258     -0.240274
      4.16467      4.70174      4.86422        -0.642115     -0.165079      0.267886
      5.10271      4.08020      3.45226        -0.293637      1.050894      0.463145
      5.13245      4.71659      4.39112         0.267583     -2.454418     -0.750900
 -----------------------------------------------------------------------------------
    total drift:                                0.000064     -0.000420     -0.001020


--------------------------------------------------------------------------------------------------------



  FREE ENERGIE OF THE ION-ELECTRON SYSTEM (eV)
  ---------------------------------------------------
  free  energy   TOTEN  =       -23.89043450 eV

  energy  without entropy=      -23.89043450  energy(sigma->0) =      -23.89043450



--------------------------------------------------------------------------------------------------------


    POTLOK:  cpu time    1.5480: real time    1.5516


--------------------------------------------------------------------------------------------------------


     LOOP+:  cpu time   42.6077: real time   42.7131
    4ORBIT:  cpu time    0.0000: real time    0.0000

 total amount of memory used by VASP MPI-rank0   274965. kBytes
=======================================================================

   base      :      30000. kBytes
   nonlr-proj:       1230. kBytes
   fftplans  :      86708. kBytes
   grid      :     154683. kBytes
   one-center:         15. kBytes
   wavefun   :       2329. kBytes

  
  
 General timing and accounting informations for this job:
 ========================================================
  
                  Total CPU time used (sec):       44.304
                            User time (sec):       42.907
                          System time (sec):        1.397
                         Elapsed time (sec):       44.423
  
                   Maximum memory used (kb):      390348.
                   Average memory used (kb):           0.
  
                          Minor page faults:       219039
                          Major page faults:            0
                 Voluntary context switches:          149
