 vasp.5.4.4.18Apr17-6-g9f103f2a35 (build Jul 12 2018 13:43:46) complex           
 executed on             LinuxGNU date 2019.06.25  21:09:25
 running on    1 total cores
 distrk:  each k-point on    1 cores,    1 groups
 distr:  one band on NCORES_PER_BAND=   1 cores,    1 groups


--------------------------------------------------------------------------------------------------------


 INCAR:
 POTCAR:    PAW_PBE H 15Jun2001                   
 POTCAR:    PAW_PBE C 08Apr2002                   
 POTCAR:    PAW_PBE H 15Jun2001                   
   VRHFIN =H: ultrasoft test                                                    
   LEXCH  = PE                                                                  
   EATOM  =    12.4884 eV,    0.9179 Ry                                         
                                                                                
   TITEL  = PAW_PBE H 15Jun2001                                                 
   LULTRA =        F    use ultrasoft PP ?                                      
   IUNSCR =        0    unscreen: 0-lin 1-nonlin 2-no                           
   RPACOR =    0.000    partial core radius                                     
   POMASS =    1.000; ZVAL   =    1.000    mass and valenz                      
   RCORE  =    1.100    outmost cutoff radius                                   
   RWIGS  =    0.700; RWIGS  =    0.370    wigner-seitz radius (au A)           
   ENMAX  =  250.000; ENMIN  =  200.000 eV                                      
   RCLOC  =    0.701    cutoff for local pot                                    
   LCOR   =        T    correct aug charges                                     
   LPAW   =        T    paw PP                                                  
   EAUG   =  400.000                                                            
   RMAX   =    1.123    core radius for proj-oper                               
   RAUG   =    1.200    factor for augmentation sphere                          
   RDEP   =    1.112    radius for radial grids                                 
   RDEPT  =    0.926    core radius for aug-charge                              
                                                                                
   Atomic configuration                                                         
    2 entries                                                                   
     n  l   j            E        occ.                                          
     1  0  0.50        -6.4927   1.0000                                         
     2  1  0.50        -3.4015   0.0000                                         
   Description                                                                  
     l       E           TYP  RCUT    TYP  RCUT                                 
     0     -6.4927494     23  1.100                                             
     0      6.8029130     23  1.100                                             
     1     -4.0817478     23  1.100                                             
  local pseudopotential read in
  atomic valenz-charges read in
  non local Contribution for L=           0  read in
    real space projection operators read in
  non local Contribution for L=           0  read in
    real space projection operators read in
  non local Contribution for L=           1  read in
    real space projection operators read in
    PAW grid and wavefunctions read in

   number of l-projection  operators is LMAX  =           3
   number of lm-projection operators is LMMAX =           5

 POTCAR:    PAW_PBE C 08Apr2002                   
   VRHFIN =C: s2p2                                                              
   LEXCH  = PE                                                                  
   EATOM  =   147.1560 eV,   10.8157 Ry                                         
                                                                                
   TITEL  = PAW_PBE C 08Apr2002                                                 
   LULTRA =        F    use ultrasoft PP ?                                      
   IUNSCR =        1    unscreen: 0-lin 1-nonlin 2-no                           
   RPACOR =    1.200    partial core radius                                     
   POMASS =   12.011; ZVAL   =    4.000    mass and valenz                      
   RCORE  =    1.500    outmost cutoff radius                                   
   RWIGS  =    1.630; RWIGS  =    0.863    wigner-seitz radius (au A)           
   ENMAX  =  400.000; ENMIN  =  300.000 eV                                      
   ICORE  =        2    local potential                                         
   LCOR   =        T    correct aug charges                                     
   LPAW   =        T    paw PP                                                  
   EAUG   =  644.873                                                            
   DEXC   =    0.000                                                            
   RMAX   =    1.529    core radius for proj-oper                               
   RAUG   =    1.300    factor for augmentation sphere                          
   RDEP   =    1.501    radius for radial grids                                 
   RDEPT  =    1.300    core radius for aug-charge                              
                                                                                
   Atomic configuration                                                         
    4 entries                                                                   
     n  l   j            E        occ.                                          
     1  0  0.50      -273.3789   2.0000                                         
     2  0  0.50       -13.7508   2.0000                                         
     2  1  0.50        -5.2854   2.0000                                         
     3  2  1.50        -5.4423   0.0000                                         
   Description                                                                  
     l       E           TYP  RCUT    TYP  RCUT                                 
     0    -13.7508458     23  1.200                                             
     0     -8.2022199     23  1.200                                             
     1     -5.2854383     23  1.500                                             
     1     34.0145650     23  1.500                                             
     2     -5.4423304      7  1.500                                             
  local pseudopotential read in
  partial core-charges read in
  partial kinetic energy density read in
  atomic valenz-charges read in
  non local Contribution for L=           0  read in
    real space projection operators read in
  non local Contribution for L=           0  read in
    real space projection operators read in
  non local Contribution for L=           1  read in
    real space projection operators read in
  non local Contribution for L=           1  read in
    real space projection operators read in
    PAW grid and wavefunctions read in

   number of l-projection  operators is LMAX  =           4
   number of lm-projection operators is LMMAX =           8


 ----------------------------------------------------------------------------- 
|                                                                             |
|  ADVICE TO THIS USER RUNNING 'VASP/VAMP'   (HEAR YOUR MASTER'S VOICE ...):  |
|                                                                             |
|      You have a (more or less) 'small supercell' and for smaller cells      |
|      it is recommended  to use the reciprocal-space projection scheme!      |
|      The real space optimization is not  efficient for small cells and it   |
|      is also less accurate ...                                              |
|      Therefore set LREAL=.FALSE. in the  INCAR file                         |
|                                                                             |
 ----------------------------------------------------------------------------- 

 Optimization of the real space projectors (new method)

 maximal supplied QI-value         = 34.20
 optimisation between [QCUT,QGAM] = [  9.92, 20.18] = [ 27.55,114.04] Ry 
 Optimized for a Real-space Cutoff    1.34 Angstroem

   l    n(q)    QCUT    max X(q) W(low)/X(q) W(high)/X(q)  e(spline) 
   0      8     9.919    19.460    0.16E-03    0.20E-03    0.36E-06
   0      8     9.919    12.209    0.16E-03    0.20E-03    0.35E-06
   1      8     9.919     4.655    0.19E-03    0.46E-03    0.40E-06
 Optimization of the real space projectors (new method)

 maximal supplied QI-value         = 25.13
 optimisation between [QCUT,QGAM] = [ 10.05, 20.36] = [ 28.30,116.06] Ry 
 Optimized for a Real-space Cutoff    1.51 Angstroem

   l    n(q)    QCUT    max X(q) W(low)/X(q) W(high)/X(q)  e(spline) 
   0      9    10.053   115.676    0.19E-03    0.21E-03    0.38E-06
   0      9    10.053    87.132    0.19E-03    0.21E-03    0.38E-06
   1      9    10.053     4.429    0.87E-04    0.11E-03    0.39E-06
   1      9    10.053     2.733    0.59E-04    0.62E-04    0.43E-06
  PAW_PBE H 15Jun2001                   :
 energy of atom  1       EATOM=  -12.4884
 kinetic energy error for atom=    0.0098 (will be added to EATOM!!)
  PAW_PBE C 08Apr2002                   :
 energy of atom  2       EATOM= -147.1560
 kinetic energy error for atom=    0.0288 (will be added to EATOM!!)


 POSCAR: POSCAR file written by OVITO            
  positions in cartesian coordinates
  No initial velocities read in
 exchange correlation table for  LEXCH =        8
   RHO(1)=    0.500       N(1)  =     2000
   RHO(2)=  100.500       N(2)  =     4000



--------------------------------------------------------------------------------------------------------


 ion  position               nearest neighbor table
   1  0.508  0.362  0.417-   5 1.11
   2  0.442  0.530  0.371-   5 1.16
   3  0.599  0.519  0.442-   5 1.11
   4  0.457  0.476  0.544-   5 1.10
   5  0.503  0.468  0.445-   4 1.10   3 1.11   1 1.11   2 1.16


IMPORTANT INFORMATION: All symmetrisations will be switched off!
NOSYMM: (Re-)initialisation of all symmetry stuff for point group C_1.




Automatic generation of k-mesh.
 generate k-points for:    1    1    1
Space group operators:
 irot       det(A)        alpha          n_x          n_y          n_z        tau_x        tau_y        tau_z
    1     1.000000     0.000000     1.000000     0.000000     0.000000     0.000000     0.000000     0.000000
 
 Subroutine IBZKPT returns following result:
 ===========================================
 
 Found      1 irreducible k-points:
 
 Following reciprocal coordinates:
            Coordinates               Weight
  0.000000  0.000000  0.000000      1.000000
 
 Following cartesian coordinates:
            Coordinates               Weight
  0.000000  0.000000  0.000000      1.000000
 


--------------------------------------------------------------------------------------------------------




 Dimension of arrays:
   k-points           NKPTS =      1   k-points in BZ     NKDIM =      1   number of bands    NBANDS=      8
   number of dos      NEDOS =    301   number of ions     NIONS =      5
   non local maximal  LDIM  =      4   non local SUM 2l+1 LMDIM =      8
   total plane-waves  NPLWV = 343000
   max r-space proj   IRMAX =   4776   max aug-charges    IRDMAX=   4078
   dimension x,y,z NGX =    70 NGY =   70 NGZ =   70
   dimension x,y,z NGXF=   140 NGYF=  140 NGZF=  140
   support grid    NGXF=   140 NGYF=  140 NGZF=  140
   ions per type =               4   1
   NGX,Y,Z   is equivalent  to a cutoff of  11.32, 11.52, 11.58 a.u.
   NGXF,Y,Z  is equivalent  to a cutoff of  22.63, 23.03, 23.17 a.u.

 SYSTEM =  unknown system                          
 POSCAR =  POSCAR file written by OVITO            

 Startparameter for this run:
   NWRITE =      2    write-flag & timer
   PREC   = a         normal or accurate (medium, high low for compatibility)
   ISTART =      0    job   : 0-new  1-cont  2-samecut
   ICHARG =      2    charge: 1-file 2-atom 10-const
   ISPIN  =      1    spin polarized calculation?
   LNONCOLLINEAR =      F non collinear calculations
   LSORBIT =      F    spin-orbit coupling
   INIWAV =      1    electr: 0-lowe 1-rand  2-diag
   LASPH  =      F    aspherical Exc in radial PAW
   METAGGA=      F    non-selfconsistent MetaGGA calc.

 Electronic Relaxation 1
   ENCUT  =  400.0 eV  29.40 Ry    5.42 a.u.  16.77 16.48 16.38*2*pi/ulx,y,z
   ENINI  =  400.0     initial cutoff
   ENAUG  =  644.9 eV  augmentation charge cutoff
   NELM   =    120;   NELMIN=  4; NELMDL= -5     # of ELM steps 
   EDIFF  = 0.1E-05   stopping-criterion for ELM
   LREAL  =      T    real-space projection
   NLSPLINE    = F    spline interpolate recip. space projectors
   LCOMPAT=      F    compatible to vasp.4.4
   GGA_COMPAT  = T    GGA compatible to vasp.4.4-vasp.4.6
   LMAXPAW     = -100 max onsite density
   LMAXMIX     =    2 max onsite mixed and CHGCAR
   VOSKOWN=      0    Vosko Wilk Nusair interpolation
   ROPT   =   -0.00025  -0.00025
 Ionic relaxation
   EDIFFG = 0.1E-04   stopping-criterion for IOM
   NSW    =      0    number of steps for IOM
   NBLOCK =      1;   KBLOCK =      1    inner block; outer block 
   IBRION =     -1    ionic relax: 0-MD 1-quasi-New 2-CG
   NFREE  =      0    steps in history (QN), initial steepest desc. (CG)
   ISIF   =      2    stress and relaxation
   IWAVPR =     10    prediction:  0-non 1-charg 2-wave 3-comb
   ISYM   =      0    0-nonsym 1-usesym 2-fastsym
   LCORR  =      T    Harris-Foulkes like correction to forces

   POTIM  = 0.5000    time-step for ionic-motion
   TEIN   =    0.0    initial temperature
   TEBEG  =    0.0;   TEEND  =   0.0 temperature during run
   SMASS  =  -3.00    Nose mass-parameter (am)
   estimated Nose-frequenzy (Omega)   =  0.10E-29 period in steps =****** mass=  -0.242E-26a.u.
   SCALEE = 1.0000    scale energy and forces
   NPACO  =    256;   APACO  = 16.0  distance and # of slots for P.C.
   PSTRESS=    0.0 pullay stress

  Mass of Ions in am
   POMASS =   1.00 12.01
  Ionic Valenz
   ZVAL   =   1.00  4.00
  Atomic Wigner-Seitz radii
   RWIGS  =  -1.00 -1.00
  virtual crystal weights 
   VCA    =   1.00  1.00
   NELECT =       8.0000    total number of electrons
   NUPDOWN=      -1.0000    fix difference up-down

 DOS related values:
   EMIN   =  10.00;   EMAX   =-10.00  energy-range for DOS
   EFERMI =   0.00
   ISMEAR =     0;   SIGMA  =   0.05  broadening in eV -4-tet -1-fermi 0-gaus

 Electronic relaxation 2 (details)
   IALGO  =     38    algorithm
   LDIAG  =      T    sub-space diagonalisation (order eigenvalues)
   LSUBROT=      F    optimize rotation matrix (better conditioning)
   TURBO    =      0    0=normal 1=particle mesh
   IRESTART =      0    0=no restart 2=restart with 2 vectors
   NREBOOT  =      0    no. of reboots
   NMIN     =      0    reboot dimension
   EREF     =   0.00    reference energy to select bands
   IMIX   =      4    mixing-type and parameters
     AMIX     =   0.40;   BMIX     =  1.00
     AMIX_MAG =   1.60;   BMIX_MAG =  1.00
     AMIN     =   0.10
     WC   =   100.;   INIMIX=   1;  MIXPRE=   1;  MAXMIX= -45

 Intra band minimization:
   WEIMIN = 0.0000     energy-eigenvalue tresh-hold
   EBREAK =  0.31E-07  absolut break condition
   DEPER  =   0.30     relativ break condition  

   TIME   =   0.40     timestep for ELM

  volume/ion in A,a.u.               =     208.72      1408.54
  Fermi-wavevector in a.u.,A,eV,Ry     =   0.322793  0.609989  1.417659  0.104195
  Thomas-Fermi vector in A             =   1.211478

 Write flags
   LWAVE        =      F    write WAVECAR
   LDOWNSAMPLE  =      F    k-point downsampling of WAVECAR
   LCHARG       =      F    write CHGCAR
   LVTOT        =      F    write LOCPOT, total local potential
   LVHAR        =      F    write LOCPOT, Hartree potential only
   LELF         =      F    write electronic localiz. function (ELF)
   LORBIT       =      0    0 simple, 1 ext, 2 COOP (PROOUT), +10 PAW based schemes


 Dipole corrections
   LMONO  =      F    monopole corrections only (constant potential shift)
   LDIPOL =      F    correct potential (dipole corrections)
   IDIPOL =      0    1-x, 2-y, 3-z, 4-all directions 
   EPSILON=  1.0000000 bulk dielectric constant

 Exchange correlation treatment:
   GGA     =    --    GGA type
   LEXCH   =     8    internal setting for exchange type
   VOSKOWN=      0    Vosko Wilk Nusair interpolation
   LHFCALC =     F    Hartree Fock is set to
   LHFONE  =     F    Hartree Fock one center treatment
   AEXX    =    0.0000 exact exchange contribution

 Linear response parameters
   LEPSILON=     F    determine dielectric tensor
   LRPA    =     F    only Hartree local field effects (RPA)
   LNABLA  =     F    use nabla operator in PAW spheres
   LVEL    =     F    velocity operator in full k-point grid
   LINTERFAST=   F  fast interpolation
   KINTER  =     0    interpolate to denser k-point grid
   CSHIFT  =0.1000    complex shift for real part using Kramers Kronig
   OMEGAMAX=  -1.0    maximum frequency
   DEG_THRESHOLD= 0.2000000E-02 threshold for treating states as degnerate
   RTIME   =   -0.100 relaxation time in fs
  (WPLASMAI=    0.000 imaginary part of plasma frequency in eV, 0.658/RTIME)
   DFIELD  = 0.0000000 0.0000000 0.0000000 field for delta impulse in time

 Orbital magnetization related:
   ORBITALMAG=     F  switch on orbital magnetization
   LCHIMAG   =     F  perturbation theory with respect to B field
   DQ        =  0.001000  dq finite difference perturbation B field
   LLRAUG    =     F  two centre corrections for induced B field



--------------------------------------------------------------------------------------------------------


 Static calculation
 charge density and potential will be updated during run
 non-spin polarized calculation
 Variant of blocked Davidson
 Davidson routine will perform the subspace rotation
 perform sub-space diagonalisation
    after iterative eigenvector-optimisation
 modified Broyden-mixing scheme, WC =      100.0
 initial mixing is a Kerker type mixing with AMIX =  0.4000 and BMIX =      1.0000
 Hartree-type preconditioning will be used
 using additional bands            4
 real space projection scheme for non local part
 use partial core corrections
 calculate Harris-corrections to forces   (improved forces if not selfconsistent)
 use gradient corrections 
 use of overlap-Matrix (Vanderbilt PP)
 Gauss-broadening in eV      SIGMA  =   0.05


--------------------------------------------------------------------------------------------------------


  energy-cutoff  :      400.00
  volume of cell :     1043.62
      direct lattice vectors                 reciprocal lattice vectors
    10.283040100  0.000000000  0.000000000     0.097247506  0.001455494 -0.000446198
    -0.151212700 10.103137000  0.000000000     0.000000000  0.098979159 -0.000441363
     0.045420500  0.044793900 10.045377700     0.000000000 -0.000000000  0.099548273

  length of vectors
    10.283040100 10.104268530 10.045580255     0.097259421  0.098980143  0.099548273



 k-points in units of 2pi/SCALE and weight: read from INCAR                         
   0.00000000  0.00000000  0.00000000       1.000

 k-points in reciprocal lattice and weights: read from INCAR                         
   0.00000000  0.00000000  0.00000000       1.000

 position of ions in fractional coordinates (direct lattice) 
   0.50813197  0.36188763  0.41656670
   0.44221374  0.52970830  0.37068692
   0.59892396  0.51864685  0.44224222
   0.45710729  0.47570679  0.54447929
   0.50290695  0.46759193  0.44525555

 position of ions in cartesian coordinates  (Angst):
   5.18934010  3.67486000  4.18456980
   4.48403980  5.36832000  3.72369010
   6.10042000  5.25976990  4.44249010
   4.65325020  4.83052020  5.46950010
   5.12093020  4.74409010  4.47276020



--------------------------------------------------------------------------------------------------------


 k-point  1 :   0.0000 0.0000 0.0000  plane waves:   19005

 maximum and minimum number of plane-waves per node :     19005    19005

 maximum number of plane-waves:     19005
 maximum index in each direction: 
   IXMAX=   16   IYMAX=   16   IZMAX=   16
   IXMIN=  -16   IYMIN=  -16   IZMIN=  -16


 serial   3D FFT for wavefunctions
 parallel 3D FFT for charge:
    minimum data exchange during FFTs selected (reduces bandwidth)


 total amount of memory used by VASP MPI-rank0   297471. kBytes
=======================================================================

   base      :      30000. kBytes
   nonlr-proj:       1290. kBytes
   fftplans  :      94700. kBytes
   grid      :     169030. kBytes
   one-center:         15. kBytes
   wavefun   :       2436. kBytes

     INWAV:  cpu time    0.0000: real time    0.0000
 Broyden mixing: mesh for mixing (old mesh)
   NGX = 33   NGY = 33   NGZ = 33
  (NGX  =140   NGY  =140   NGZ  =140)
  gives a total of  35937 points

 initial charge density was supplied:
 charge density of overlapping atoms calculated
 number of electron       8.0000000 magnetization 
 keeping initial charge density in first step


--------------------------------------------------------------------------------------------------------


 Maximum index for non-local projection operator         4585
 Maximum index for augmentation-charges         3756 (set IRDMAX)


--------------------------------------------------------------------------------------------------------


 First call to EWALD:  gamma=   0.175
 Maximum number of real-space cells 3x 3x 3
 Maximum number of reciprocal cells 3x 3x 3

    FEWALD:  cpu time    0.0007: real time    0.0007


--------------------------------------- Iteration      1(   1)  ---------------------------------------


    POTLOK:  cpu time    1.9058: real time    1.9105
    SETDIJ:  cpu time    0.0064: real time    0.0064
     EDDAV:  cpu time    0.5192: real time    0.5205
       DOS:  cpu time    0.0003: real time    0.0003
    --------------------------------------------
      LOOP:  cpu time    2.4317: real time    2.4377

 eigenvalue-minimisations  :    16
 total energy-change (2. order) : 0.5457210E+02  (-0.1608301E+03)
 number of electron       8.0000000 magnetization 
 augmentation part        8.0000000 magnetization 

 Free energy of the ion-electron system (eV)
  ---------------------------------------------------
  alpha Z        PSCENC =         0.23212460
  Ewald energy   TEWEN  =       125.06291399
  -Hartree energ DENC   =      -242.84565234
  -exchange      EXHF   =         0.00000000
  -V(xc)+E(xc)   XCENC  =        21.87692424
  PAW double counting   =       117.05815612     -117.66307307
  entropy T*S    EENTRO =        -0.00000000
  eigenvalues    EBANDS =       -46.19104316
  atomic energy  EATOM  =       197.04175453
  Solvation  Ediel_sol  =         0.00000000
  ---------------------------------------------------
  free energy    TOTEN  =        54.57210492 eV

  energy without entropy =       54.57210492  energy(sigma->0) =       54.57210492


--------------------------------------------------------------------------------------------------------




--------------------------------------- Iteration      1(   2)  ---------------------------------------


     EDDAV:  cpu time    0.9751: real time    0.9776
       DOS:  cpu time    0.0001: real time    0.0001
    --------------------------------------------
      LOOP:  cpu time    0.9752: real time    0.9777

 eigenvalue-minimisations  :    32
 total energy-change (2. order) :-0.6961896E+02  (-0.6961896E+02)
 number of electron       8.0000000 magnetization 
 augmentation part        8.0000000 magnetization 

 Free energy of the ion-electron system (eV)
  ---------------------------------------------------
  alpha Z        PSCENC =         0.23212460
  Ewald energy   TEWEN  =       125.06291399
  -Hartree energ DENC   =      -242.84565234
  -exchange      EXHF   =         0.00000000
  -V(xc)+E(xc)   XCENC  =        21.87692424
  PAW double counting   =       117.05815612     -117.66307307
  entropy T*S    EENTRO =        -0.00000000
  eigenvalues    EBANDS =      -115.81000461
  atomic energy  EATOM  =       197.04175453
  Solvation  Ediel_sol  =         0.00000000
  ---------------------------------------------------
  free energy    TOTEN  =       -15.04685653 eV

  energy without entropy =      -15.04685653  energy(sigma->0) =      -15.04685653


--------------------------------------------------------------------------------------------------------




--------------------------------------- Iteration      1(   3)  ---------------------------------------


     EDDAV:  cpu time    0.5388: real time    0.5401
       DOS:  cpu time    0.0001: real time    0.0001
    --------------------------------------------
      LOOP:  cpu time    0.5389: real time    0.5402

 eigenvalue-minimisations  :    16
 total energy-change (2. order) :-0.1139073E+02  (-0.1139073E+02)
 number of electron       8.0000000 magnetization 
 augmentation part        8.0000000 magnetization 

 Free energy of the ion-electron system (eV)
  ---------------------------------------------------
  alpha Z        PSCENC =         0.23212460
  Ewald energy   TEWEN  =       125.06291399
  -Hartree energ DENC   =      -242.84565234
  -exchange      EXHF   =         0.00000000
  -V(xc)+E(xc)   XCENC  =        21.87692424
  PAW double counting   =       117.05815612     -117.66307307
  entropy T*S    EENTRO =        -0.00000000
  eigenvalues    EBANDS =      -127.20073280
  atomic energy  EATOM  =       197.04175453
  Solvation  Ediel_sol  =         0.00000000
  ---------------------------------------------------
  free energy    TOTEN  =       -26.43758473 eV

  energy without entropy =      -26.43758473  energy(sigma->0) =      -26.43758473


--------------------------------------------------------------------------------------------------------




--------------------------------------- Iteration      1(   4)  ---------------------------------------


     EDDAV:  cpu time    0.9177: real time    0.9199
       DOS:  cpu time    0.0002: real time    0.0001
    --------------------------------------------
      LOOP:  cpu time    0.9179: real time    0.9201

 eigenvalue-minimisations  :    32
 total energy-change (2. order) :-0.6993280E+00  (-0.6993280E+00)
 number of electron       8.0000000 magnetization 
 augmentation part        8.0000000 magnetization 

 Free energy of the ion-electron system (eV)
  ---------------------------------------------------
  alpha Z        PSCENC =         0.23212460
  Ewald energy   TEWEN  =       125.06291399
  -Hartree energ DENC   =      -242.84565234
  -exchange      EXHF   =         0.00000000
  -V(xc)+E(xc)   XCENC  =        21.87692424
  PAW double counting   =       117.05815612     -117.66307307
  entropy T*S    EENTRO =        -0.00000000
  eigenvalues    EBANDS =      -127.90006076
  atomic energy  EATOM  =       197.04175453
  Solvation  Ediel_sol  =         0.00000000
  ---------------------------------------------------
  free energy    TOTEN  =       -27.13691269 eV

  energy without entropy =      -27.13691269  energy(sigma->0) =      -27.13691269


--------------------------------------------------------------------------------------------------------




--------------------------------------- Iteration      1(   5)  ---------------------------------------


     EDDAV:  cpu time    0.9013: real time    0.9034
       DOS:  cpu time    0.0002: real time    0.0002
    CHARGE:  cpu time    0.1069: real time    0.1071
    MIXING:  cpu time    0.0415: real time    0.0416
    --------------------------------------------
      LOOP:  cpu time    1.0499: real time    1.0524

 eigenvalue-minimisations  :    32
 total energy-change (2. order) :-0.3359353E-03  (-0.3359353E-03)
 number of electron       8.0000003 magnetization 
 augmentation part        0.2167640 magnetization 

 Broyden mixing:
  rms(total) = 0.82969E+00    rms(broyden)= 0.82948E+00
  rms(prec ) = 0.11727E+01
  weight for this iteration     100.00

 Free energy of the ion-electron system (eV)
  ---------------------------------------------------
  alpha Z        PSCENC =         0.23212460
  Ewald energy   TEWEN  =       125.06291399
  -Hartree energ DENC   =      -242.84565234
  -exchange      EXHF   =         0.00000000
  -V(xc)+E(xc)   XCENC  =        21.87692424
  PAW double counting   =       117.05815612     -117.66307307
  entropy T*S    EENTRO =        -0.00000000
  eigenvalues    EBANDS =      -127.90039670
  atomic energy  EATOM  =       197.04175453
  Solvation  Ediel_sol  =         0.00000000
  ---------------------------------------------------
  free energy    TOTEN  =       -27.13724862 eV

  energy without entropy =      -27.13724862  energy(sigma->0) =      -27.13724862


--------------------------------------------------------------------------------------------------------




--------------------------------------- Iteration      1(   6)  ---------------------------------------


    POTLOK:  cpu time    1.8585: real time    1.8629
    SETDIJ:  cpu time    0.0065: real time    0.0065
     EDDAV:  cpu time    0.6962: real time    0.6978
       DOS:  cpu time    0.0001: real time    0.0001
    CHARGE:  cpu time    0.0979: real time    0.0982
    MIXING:  cpu time    0.0364: real time    0.0365
    --------------------------------------------
      LOOP:  cpu time    2.6956: real time    2.7020

 eigenvalue-minimisations  :    24
 total energy-change (2. order) : 0.2619447E+01  (-0.8334750E+00)
 number of electron       8.0000003 magnetization 
 augmentation part        0.1897875 magnetization 

 Broyden mixing:
  rms(total) = 0.42621E+00    rms(broyden)= 0.42610E+00
  rms(prec ) = 0.53248E+00
  weight for this iteration     100.00

 eigenvalues of (default mixing * dielectric matrix)
  average eigenvalue GAMMA=   1.1841
  1.1841

 Free energy of the ion-electron system (eV)
  ---------------------------------------------------
  alpha Z        PSCENC =         0.23212460
  Ewald energy   TEWEN  =       125.06291399
  -Hartree energ DENC   =      -261.64026160
  -exchange      EXHF   =         0.00000000
  -V(xc)+E(xc)   XCENC  =        23.01770920
  PAW double counting   =       230.76056142     -231.52782855
  entropy T*S    EENTRO =        -0.00000000
  eigenvalues    EBANDS =      -107.46477555
  atomic energy  EATOM  =       197.04175453
  Solvation  Ediel_sol  =         0.00000000
  ---------------------------------------------------
  free energy    TOTEN  =       -24.51780196 eV

  energy without entropy =      -24.51780196  energy(sigma->0) =      -24.51780196


--------------------------------------------------------------------------------------------------------




--------------------------------------- Iteration      1(   7)  ---------------------------------------


    POTLOK:  cpu time    1.7798: real time    1.7840
    SETDIJ:  cpu time    0.0064: real time    0.0064
     EDDAV:  cpu time    0.9448: real time    0.9470
       DOS:  cpu time    0.0001: real time    0.0001
    CHARGE:  cpu time    0.1010: real time    0.1013
    MIXING:  cpu time    0.0382: real time    0.0383
    --------------------------------------------
      LOOP:  cpu time    2.8703: real time    2.8771

 eigenvalue-minimisations  :    32
 total energy-change (2. order) : 0.4307769E+00  (-0.5987790E-01)
 number of electron       8.0000003 magnetization 
 augmentation part        0.1822357 magnetization 

 Broyden mixing:
  rms(total) = 0.22000E+00    rms(broyden)= 0.21996E+00
  rms(prec ) = 0.27155E+00
  weight for this iteration     100.00

 eigenvalues of (default mixing * dielectric matrix)
  average eigenvalue GAMMA=   1.6960
  1.2314  2.1606

 Free energy of the ion-electron system (eV)
  ---------------------------------------------------
  alpha Z        PSCENC =         0.23212460
  Ewald energy   TEWEN  =       125.06291399
  -Hartree energ DENC   =      -270.87709472
  -exchange      EXHF   =         0.00000000
  -V(xc)+E(xc)   XCENC  =        23.72164418
  PAW double counting   =       344.51120096     -345.30035627
  entropy T*S    EENTRO =        -0.00000000
  eigenvalues    EBANDS =       -98.47921229
  atomic energy  EATOM  =       197.04175453
  Solvation  Ediel_sol  =         0.00000000
  ---------------------------------------------------
  free energy    TOTEN  =       -24.08702502 eV

  energy without entropy =      -24.08702502  energy(sigma->0) =      -24.08702502


--------------------------------------------------------------------------------------------------------




--------------------------------------- Iteration      1(   8)  ---------------------------------------


    POTLOK:  cpu time    1.8127: real time    1.8170
    SETDIJ:  cpu time    0.0065: real time    0.0066
     EDDAV:  cpu time    0.7325: real time    0.7342
       DOS:  cpu time    0.0001: real time    0.0001
    CHARGE:  cpu time    0.1012: real time    0.1014
    MIXING:  cpu time    0.0392: real time    0.0393
    --------------------------------------------
      LOOP:  cpu time    2.6922: real time    2.6986

 eigenvalue-minimisations  :    24
 total energy-change (2. order) : 0.1590780E+00  (-0.1789698E-01)
 number of electron       8.0000003 magnetization 
 augmentation part        0.1797908 magnetization 

 Broyden mixing:
  rms(total) = 0.26451E-01    rms(broyden)= 0.26425E-01
  rms(prec ) = 0.53642E-01
  weight for this iteration     100.00

 eigenvalues of (default mixing * dielectric matrix)
  average eigenvalue GAMMA=   1.5326
  2.1620  1.0929  1.3428

 Free energy of the ion-electron system (eV)
  ---------------------------------------------------
  alpha Z        PSCENC =         0.23212460
  Ewald energy   TEWEN  =       125.06291399
  -Hartree energ DENC   =      -277.77544985
  -exchange      EXHF   =         0.00000000
  -V(xc)+E(xc)   XCENC  =        24.33993834
  PAW double counting   =       447.51072753     -448.28503810
  entropy T*S    EENTRO =        -0.00000000
  eigenvalues    EBANDS =       -92.05491805
  atomic energy  EATOM  =       197.04175453
  Solvation  Ediel_sol  =         0.00000000
  ---------------------------------------------------
  free energy    TOTEN  =       -23.92794701 eV

  energy without entropy =      -23.92794701  energy(sigma->0) =      -23.92794701


--------------------------------------------------------------------------------------------------------




--------------------------------------- Iteration      1(   9)  ---------------------------------------


    POTLOK:  cpu time    1.8174: real time    1.8217
    SETDIJ:  cpu time    0.0064: real time    0.0064
     EDDAV:  cpu time    0.9495: real time    0.9518
       DOS:  cpu time    0.0001: real time    0.0001
    CHARGE:  cpu time    0.1006: real time    0.1008
    MIXING:  cpu time    0.0387: real time    0.0388
    --------------------------------------------
      LOOP:  cpu time    2.9128: real time    2.9196

 eigenvalue-minimisations  :    32
 total energy-change (2. order) : 0.6017672E-02  (-0.3009654E-03)
 number of electron       8.0000002 magnetization 
 augmentation part        0.1792853 magnetization 

 Broyden mixing:
  rms(total) = 0.16231E-01    rms(broyden)= 0.16228E-01
  rms(prec ) = 0.36501E-01
  weight for this iteration     100.00

 eigenvalues of (default mixing * dielectric matrix)
  average eigenvalue GAMMA=   1.8993
  2.9859  2.4564  1.1746  0.9800

 Free energy of the ion-electron system (eV)
  ---------------------------------------------------
  alpha Z        PSCENC =         0.23212460
  Ewald energy   TEWEN  =       125.06291399
  -Hartree energ DENC   =      -278.96372961
  -exchange      EXHF   =         0.00000000
  -V(xc)+E(xc)   XCENC  =        24.40117731
  PAW double counting   =       444.17269750     -444.94539116
  entropy T*S    EENTRO =        -0.00000000
  eigenvalues    EBANDS =       -90.92347650
  atomic energy  EATOM  =       197.04175453
  Solvation  Ediel_sol  =         0.00000000
  ---------------------------------------------------
  free energy    TOTEN  =       -23.92192934 eV

  energy without entropy =      -23.92192934  energy(sigma->0) =      -23.92192934


--------------------------------------------------------------------------------------------------------




--------------------------------------- Iteration      1(  10)  ---------------------------------------


    POTLOK:  cpu time    1.7328: real time    1.7370
    SETDIJ:  cpu time    0.0064: real time    0.0064
     EDDAV:  cpu time    0.5275: real time    0.5287
       DOS:  cpu time    0.0001: real time    0.0001
    CHARGE:  cpu time    0.0999: real time    0.1001
    MIXING:  cpu time    0.0400: real time    0.0401
    --------------------------------------------
      LOOP:  cpu time    2.4068: real time    2.4125

 eigenvalue-minimisations  :    16
 total energy-change (2. order) : 0.9250212E-02  (-0.5930293E-03)
 number of electron       8.0000002 magnetization 
 augmentation part        0.1790845 magnetization 

 Broyden mixing:
  rms(total) = 0.69751E-02    rms(broyden)= 0.69737E-02
  rms(prec ) = 0.16182E-01
  weight for this iteration     100.00

 eigenvalues of (default mixing * dielectric matrix)
  average eigenvalue GAMMA=   1.9544
  3.0854  0.9975  1.1745  2.2574  2.2574

 Free energy of the ion-electron system (eV)
  ---------------------------------------------------
  alpha Z        PSCENC =         0.23212460
  Ewald energy   TEWEN  =       125.06291399
  -Hartree energ DENC   =      -280.62222056
  -exchange      EXHF   =         0.00000000
  -V(xc)+E(xc)   XCENC  =        24.47652934
  PAW double counting   =       435.04473847     -435.81315050
  entropy T*S    EENTRO =        -0.00000000
  eigenvalues    EBANDS =       -89.33536900
  atomic energy  EATOM  =       197.04175453
  Solvation  Ediel_sol  =         0.00000000
  ---------------------------------------------------
  free energy    TOTEN  =       -23.91267913 eV

  energy without entropy =      -23.91267913  energy(sigma->0) =      -23.91267913


--------------------------------------------------------------------------------------------------------




--------------------------------------- Iteration      1(  11)  ---------------------------------------


    POTLOK:  cpu time    1.6967: real time    1.7007
    SETDIJ:  cpu time    0.0065: real time    0.0065
     EDDAV:  cpu time    0.5233: real time    0.5246
       DOS:  cpu time    0.0001: real time    0.0001
    CHARGE:  cpu time    0.0994: real time    0.0996
    MIXING:  cpu time    0.0407: real time    0.0408
    --------------------------------------------
      LOOP:  cpu time    2.3667: real time    2.3723

 eigenvalue-minimisations  :    16
 total energy-change (2. order) :-0.8054369E-02  (-0.3908253E-03)
 number of electron       8.0000002 magnetization 
 augmentation part        0.1786802 magnetization 

 Broyden mixing:
  rms(total) = 0.77138E-02    rms(broyden)= 0.77131E-02
  rms(prec ) = 0.11685E-01
  weight for this iteration     100.00

 eigenvalues of (default mixing * dielectric matrix)
  average eigenvalue GAMMA=   2.1519
  4.6166  2.8946  2.2927  1.1954  0.9561  0.9561

 Free energy of the ion-electron system (eV)
  ---------------------------------------------------
  alpha Z        PSCENC =         0.23212460
  Ewald energy   TEWEN  =       125.06291399
  -Hartree energ DENC   =      -281.62648445
  -exchange      EXHF   =         0.00000000
  -V(xc)+E(xc)   XCENC  =        24.51967610
  PAW double counting   =       439.46598967     -440.23609715
  entropy T*S    EENTRO =        -0.00000000
  eigenvalues    EBANDS =       -88.38061078
  atomic energy  EATOM  =       197.04175453
  Solvation  Ediel_sol  =         0.00000000
  ---------------------------------------------------
  free energy    TOTEN  =       -23.92073350 eV

  energy without entropy =      -23.92073350  energy(sigma->0) =      -23.92073350


--------------------------------------------------------------------------------------------------------




--------------------------------------- Iteration      1(  12)  ---------------------------------------


    POTLOK:  cpu time    1.6049: real time    1.6087
    SETDIJ:  cpu time    0.0065: real time    0.0065
     EDDAV:  cpu time    1.0307: real time    1.0332
       DOS:  cpu time    0.0001: real time    0.0001
    CHARGE:  cpu time    0.0989: real time    0.0991
    MIXING:  cpu time    0.0410: real time    0.0411
    --------------------------------------------
      LOOP:  cpu time    2.7820: real time    2.7886

 eigenvalue-minimisations  :    32
 total energy-change (2. order) :-0.2783789E-02  (-0.6015901E-04)
 number of electron       8.0000002 magnetization 
 augmentation part        0.1788039 magnetization 

 Broyden mixing:
  rms(total) = 0.23660E-02    rms(broyden)= 0.23659E-02
  rms(prec ) = 0.51080E-02
  weight for this iteration     100.00

 eigenvalues of (default mixing * dielectric matrix)
  average eigenvalue GAMMA=   2.2470
  4.8612  2.8096  2.8096  2.0188  1.1956  1.0173  1.0173

 Free energy of the ion-electron system (eV)
  ---------------------------------------------------
  alpha Z        PSCENC =         0.23212460
  Ewald energy   TEWEN  =       125.06291399
  -Hartree energ DENC   =      -281.37611944
  -exchange      EXHF   =         0.00000000
  -V(xc)+E(xc)   XCENC  =        24.49224734
  PAW double counting   =       435.57745221     -436.34717782
  entropy T*S    EENTRO =        -0.00000000
  eigenvalues    EBANDS =       -88.60671270
  atomic energy  EATOM  =       197.04175453
  Solvation  Ediel_sol  =         0.00000000
  ---------------------------------------------------
  free energy    TOTEN  =       -23.92351729 eV

  energy without entropy =      -23.92351729  energy(sigma->0) =      -23.92351729


--------------------------------------------------------------------------------------------------------




--------------------------------------- Iteration      1(  13)  ---------------------------------------


    POTLOK:  cpu time    1.6203: real time    1.6243
    SETDIJ:  cpu time    0.0066: real time    0.0067
     EDDAV:  cpu time    0.5289: real time    0.5302
       DOS:  cpu time    0.0001: real time    0.0001
    CHARGE:  cpu time    0.1002: real time    0.1004
    MIXING:  cpu time    0.0427: real time    0.0428
    --------------------------------------------
      LOOP:  cpu time    2.2988: real time    2.3044

 eigenvalue-minimisations  :    16
 total energy-change (2. order) :-0.4136556E-02  (-0.1066637E-03)
 number of electron       8.0000002 magnetization 
 augmentation part        0.1788807 magnetization 

 Broyden mixing:
  rms(total) = 0.29428E-02    rms(broyden)= 0.29424E-02
  rms(prec ) = 0.39374E-02
  weight for this iteration     100.00

 eigenvalues of (default mixing * dielectric matrix)
  average eigenvalue GAMMA=   2.3492
  5.9670  3.7458  2.5742  2.2447  1.2512  1.0320  1.0320  0.9467

 Free energy of the ion-electron system (eV)
  ---------------------------------------------------
  alpha Z        PSCENC =         0.23212460
  Ewald energy   TEWEN  =       125.06291399
  -Hartree energ DENC   =      -281.33728190
  -exchange      EXHF   =         0.00000000
  -V(xc)+E(xc)   XCENC  =        24.48554955
  PAW double counting   =       436.55190030     -437.32015543
  entropy T*S    EENTRO =        -0.00000000
  eigenvalues    EBANDS =       -88.64445948
  atomic energy  EATOM  =       197.04175453
  Solvation  Ediel_sol  =         0.00000000
  ---------------------------------------------------
  free energy    TOTEN  =       -23.92765384 eV

  energy without entropy =      -23.92765384  energy(sigma->0) =      -23.92765384


--------------------------------------------------------------------------------------------------------




--------------------------------------- Iteration      1(  14)  ---------------------------------------


    POTLOK:  cpu time    1.6651: real time    1.6692
    SETDIJ:  cpu time    0.0064: real time    0.0064
     EDDAV:  cpu time    1.0218: real time    1.0242
       DOS:  cpu time    0.0001: real time    0.0001
    CHARGE:  cpu time    0.1087: real time    0.1089
    MIXING:  cpu time    0.0434: real time    0.0435
    --------------------------------------------
      LOOP:  cpu time    2.8454: real time    2.8523

 eigenvalue-minimisations  :    32
 total energy-change (2. order) :-0.5962712E-03  (-0.1347274E-04)
 number of electron       8.0000002 magnetization 
 augmentation part        0.1788163 magnetization 

 Broyden mixing:
  rms(total) = 0.62873E-03    rms(broyden)= 0.62835E-03
  rms(prec ) = 0.13270E-02
  weight for this iteration     100.00

 eigenvalues of (default mixing * dielectric matrix)
  average eigenvalue GAMMA=   2.4884
  6.8054  4.2554  2.8616  2.3864  1.5715  1.4093  0.9966  1.0547  1.0547

 Free energy of the ion-electron system (eV)
  ---------------------------------------------------
  alpha Z        PSCENC =         0.23212460
  Ewald energy   TEWEN  =       125.06291399
  -Hartree energ DENC   =      -281.33474390
  -exchange      EXHF   =         0.00000000
  -V(xc)+E(xc)   XCENC  =        24.48189191
  PAW double counting   =       435.87134780     -436.64034398
  entropy T*S    EENTRO =        -0.00000000
  eigenvalues    EBANDS =       -88.64319506
  atomic energy  EATOM  =       197.04175453
  Solvation  Ediel_sol  =         0.00000000
  ---------------------------------------------------
  free energy    TOTEN  =       -23.92825012 eV

  energy without entropy =      -23.92825012  energy(sigma->0) =      -23.92825012


--------------------------------------------------------------------------------------------------------




--------------------------------------- Iteration      1(  15)  ---------------------------------------


    POTLOK:  cpu time    1.5567: real time    1.5606
    SETDIJ:  cpu time    0.0065: real time    0.0065
     EDDAV:  cpu time    0.6068: real time    0.6082
       DOS:  cpu time    0.0001: real time    0.0001
    CHARGE:  cpu time    0.1001: real time    0.1003
    MIXING:  cpu time    0.0444: real time    0.0445
    --------------------------------------------
      LOOP:  cpu time    2.3145: real time    2.3202

 eigenvalue-minimisations  :    16
 total energy-change (2. order) :-0.4410271E-03  (-0.3469497E-05)
 number of electron       8.0000002 magnetization 
 augmentation part        0.1788326 magnetization 

 Broyden mixing:
  rms(total) = 0.64404E-03    rms(broyden)= 0.64403E-03
  rms(prec ) = 0.88979E-03
  weight for this iteration     100.00

 eigenvalues of (default mixing * dielectric matrix)
  average eigenvalue GAMMA=   2.5359
  7.5312  4.6733  2.8327  2.6077  2.2596  0.9950  1.1793  1.1793  1.0506  1.0506

 Free energy of the ion-electron system (eV)
  ---------------------------------------------------
  alpha Z        PSCENC =         0.23212460
  Ewald energy   TEWEN  =       125.06291399
  -Hartree energ DENC   =      -281.32559776
  -exchange      EXHF   =         0.00000000
  -V(xc)+E(xc)   XCENC  =        24.48070251
  PAW double counting   =       435.36370918     -436.13266337
  entropy T*S    EENTRO =        -0.00000000
  eigenvalues    EBANDS =       -88.65163482
  atomic energy  EATOM  =       197.04175453
  Solvation  Ediel_sol  =         0.00000000
  ---------------------------------------------------
  free energy    TOTEN  =       -23.92869114 eV

  energy without entropy =      -23.92869114  energy(sigma->0) =      -23.92869114


--------------------------------------------------------------------------------------------------------




--------------------------------------- Iteration      1(  16)  ---------------------------------------


    POTLOK:  cpu time    1.6428: real time    1.6467
    SETDIJ:  cpu time    0.0064: real time    0.0064
     EDDAV:  cpu time    0.5219: real time    0.5231
       DOS:  cpu time    0.0001: real time    0.0001
    CHARGE:  cpu time    0.0990: real time    0.0993
    MIXING:  cpu time    0.0445: real time    0.0446
    --------------------------------------------
      LOOP:  cpu time    2.3147: real time    2.3202

 eigenvalue-minimisations  :    16
 total energy-change (2. order) :-0.8326590E-04  (-0.6094224E-06)
 number of electron       8.0000002 magnetization 
 augmentation part        0.1788162 magnetization 

 Broyden mixing:
  rms(total) = 0.19326E-03    rms(broyden)= 0.19321E-03
  rms(prec ) = 0.30868E-03
  weight for this iteration     100.00

 eigenvalues of (default mixing * dielectric matrix)
  average eigenvalue GAMMA=   2.6078
  8.0253  4.7303  3.5261  2.9022  2.3272  1.8459  1.3121  1.0699  1.0099  1.0099
  0.9270

 Free energy of the ion-electron system (eV)
  ---------------------------------------------------
  alpha Z        PSCENC =         0.23212460
  Ewald energy   TEWEN  =       125.06291399
  -Hartree energ DENC   =      -281.34836219
  -exchange      EXHF   =         0.00000000
  -V(xc)+E(xc)   XCENC  =        24.48211158
  PAW double counting   =       435.60215288     -436.37130237
  entropy T*S    EENTRO =        -0.00000000
  eigenvalues    EBANDS =       -88.63016742
  atomic energy  EATOM  =       197.04175453
  Solvation  Ediel_sol  =         0.00000000
  ---------------------------------------------------
  free energy    TOTEN  =       -23.92877441 eV

  energy without entropy =      -23.92877441  energy(sigma->0) =      -23.92877441


--------------------------------------------------------------------------------------------------------




--------------------------------------- Iteration      1(  17)  ---------------------------------------


    POTLOK:  cpu time    1.7837: real time    1.7881
    SETDIJ:  cpu time    0.0066: real time    0.0066
     EDDAV:  cpu time    0.5440: real time    0.5453
       DOS:  cpu time    0.0001: real time    0.0001
    CHARGE:  cpu time    0.1191: real time    0.1193
    MIXING:  cpu time    0.0491: real time    0.0492
    --------------------------------------------
      LOOP:  cpu time    2.5026: real time    2.5086

 eigenvalue-minimisations  :    16
 total energy-change (2. order) :-0.4796893E-04  (-0.2762892E-06)
 number of electron       8.0000002 magnetization 
 augmentation part        0.1788083 magnetization 

 Broyden mixing:
  rms(total) = 0.19933E-03    rms(broyden)= 0.19929E-03
  rms(prec ) = 0.27622E-03
  weight for this iteration     100.00

 eigenvalues of (default mixing * dielectric matrix)
  average eigenvalue GAMMA=   2.5807
  8.5031  5.2133  3.7627  2.6810  2.3440  1.9370  1.3599  1.2078  1.0142  1.0142
  0.9658  0.9658

 Free energy of the ion-electron system (eV)
  ---------------------------------------------------
  alpha Z        PSCENC =         0.23212460
  Ewald energy   TEWEN  =       125.06291399
  -Hartree energ DENC   =      -281.36026891
  -exchange      EXHF   =         0.00000000
  -V(xc)+E(xc)   XCENC  =        24.48265551
  PAW double counting   =       435.66842265     -436.43758379
  entropy T*S    EENTRO =        -0.00000000
  eigenvalues    EBANDS =       -88.61884095
  atomic energy  EATOM  =       197.04175453
  Solvation  Ediel_sol  =         0.00000000
  ---------------------------------------------------
  free energy    TOTEN  =       -23.92882238 eV

  energy without entropy =      -23.92882238  energy(sigma->0) =      -23.92882238


--------------------------------------------------------------------------------------------------------




--------------------------------------- Iteration      1(  18)  ---------------------------------------


    POTLOK:  cpu time    1.8497: real time    1.8540
    SETDIJ:  cpu time    0.0065: real time    0.0065
     EDDAV:  cpu time    1.0009: real time    1.0033
       DOS:  cpu time    0.0001: real time    0.0001
    CHARGE:  cpu time    0.1244: real time    0.1247
    MIXING:  cpu time    0.0510: real time    0.0512
    --------------------------------------------
      LOOP:  cpu time    3.0326: real time    3.0398

 eigenvalue-minimisations  :    32
 total energy-change (2. order) :-0.3018724E-05  (-0.6669611E-07)
 number of electron       8.0000002 magnetization 
 augmentation part        0.1788156 magnetization 

 Broyden mixing:
  rms(total) = 0.37632E-04    rms(broyden)= 0.37582E-04
  rms(prec ) = 0.65743E-04
  weight for this iteration     100.00

 eigenvalues of (default mixing * dielectric matrix)
  average eigenvalue GAMMA=   2.6104
  8.6554  5.3798  3.9140  2.6862  2.5626  2.2390  1.7907  1.4432  1.2454  1.0268
  1.0268  0.9825  0.9825

 Free energy of the ion-electron system (eV)
  ---------------------------------------------------
  alpha Z        PSCENC =         0.23212460
  Ewald energy   TEWEN  =       125.06291399
  -Hartree energ DENC   =      -281.35571896
  -exchange      EXHF   =         0.00000000
  -V(xc)+E(xc)   XCENC  =        24.48245976
  PAW double counting   =       435.66819389     -436.43729174
  entropy T*S    EENTRO =        -0.00000000
  eigenvalues    EBANDS =       -88.62326146
  atomic energy  EATOM  =       197.04175453
  Solvation  Ediel_sol  =         0.00000000
  ---------------------------------------------------
  free energy    TOTEN  =       -23.92882540 eV

  energy without entropy =      -23.92882540  energy(sigma->0) =      -23.92882540


--------------------------------------------------------------------------------------------------------




--------------------------------------- Iteration      1(  19)  ---------------------------------------


    POTLOK:  cpu time    1.8777: real time    1.8822
    SETDIJ:  cpu time    0.0065: real time    0.0065
     EDDAV:  cpu time    0.5441: real time    0.5454
       DOS:  cpu time    0.0001: real time    0.0001
    CHARGE:  cpu time    0.1259: real time    0.1262
    MIXING:  cpu time    0.0542: real time    0.0544
    --------------------------------------------
      LOOP:  cpu time    2.6086: real time    2.6148

 eigenvalue-minimisations  :    16
 total energy-change (2. order) :-0.4586973E-05  (-0.1226994E-07)
 number of electron       8.0000002 magnetization 
 augmentation part        0.1788165 magnetization 

 Broyden mixing:
  rms(total) = 0.11198E-04    rms(broyden)= 0.11178E-04
  rms(prec ) = 0.21345E-04
  weight for this iteration     100.00

 eigenvalues of (default mixing * dielectric matrix)
  average eigenvalue GAMMA=   2.5549
  8.7202  5.4504  4.1282  3.0291  2.6589  2.3096  1.6697  1.5051  1.2205  1.0354
  1.0354  0.9544  1.0255  1.0255

 Free energy of the ion-electron system (eV)
  ---------------------------------------------------
  alpha Z        PSCENC =         0.23212460
  Ewald energy   TEWEN  =       125.06291399
  -Hartree energ DENC   =      -281.35428200
  -exchange      EXHF   =         0.00000000
  -V(xc)+E(xc)   XCENC  =        24.48234494
  PAW double counting   =       435.67337629     -436.44245630
  entropy T*S    EENTRO =        -0.00000000
  eigenvalues    EBANDS =       -88.62460604
  atomic energy  EATOM  =       197.04175453
  Solvation  Ediel_sol  =         0.00000000
  ---------------------------------------------------
  free energy    TOTEN  =       -23.92882998 eV

  energy without entropy =      -23.92882998  energy(sigma->0) =      -23.92882998


--------------------------------------------------------------------------------------------------------




--------------------------------------- Iteration      1(  20)  ---------------------------------------


    POTLOK:  cpu time    1.8611: real time    1.8655
    SETDIJ:  cpu time    0.0064: real time    0.0064
     EDDAV:  cpu time    0.9627: real time    0.9649
       DOS:  cpu time    0.0001: real time    0.0001
    --------------------------------------------
      LOOP:  cpu time    2.8302: real time    2.8370

 eigenvalue-minimisations  :    32
 total energy-change (2. order) :-0.6640590E-06  (-0.1072831E-08)
 number of electron       8.0000002 magnetization 
 augmentation part        0.1788165 magnetization 

 Free energy of the ion-electron system (eV)
  ---------------------------------------------------
  alpha Z        PSCENC =         0.23212460
  Ewald energy   TEWEN  =       125.06291399
  -Hartree energ DENC   =      -281.35417641
  -exchange      EXHF   =         0.00000000
  -V(xc)+E(xc)   XCENC  =        24.48233293
  PAW double counting   =       435.67124338     -436.44032218
  entropy T*S    EENTRO =        -0.00000000
  eigenvalues    EBANDS =       -88.62470148
  atomic energy  EATOM  =       197.04175453
  Solvation  Ediel_sol  =         0.00000000
  ---------------------------------------------------
  free energy    TOTEN  =       -23.92883065 eV

  energy without entropy =      -23.92883065  energy(sigma->0) =      -23.92883065


--------------------------------------------------------------------------------------------------------




 average (electrostatic) potential at core
  the test charge radii are     0.5201  0.6991
  (the norm of the test charge is              1.0000)
       1 -41.5011       2 -41.0555       3 -41.4550       4 -41.4824       5 -58.1231



 E-fermi :  -8.5685     XC(G=0):  -0.6849     alpha+bet : -0.2019


 k-point     1 :       0.0000    0.0000    0.0000
  band No.  band energies     occupation 
      1     -16.7187      2.00000
      2      -9.5216      2.00000
      3      -9.2737      2.00000
      4      -8.7984      2.00000
      5      -0.5573      0.00000
      6       0.9272      0.00000
      7       0.9779      0.00000
      8       1.0030      0.00000


--------------------------------------------------------------------------------------------------------


 soft charge-density along one line, spin component           1
         0         1         2         3         4         5         6         7         8         9
 total charge-density along one line

 pseudopotential strength for first ion, spin component:           1
 -2.342  -4.035  -0.002  -0.000   0.000
 -4.035  -6.867  -0.005  -0.001   0.000
 -0.002  -0.005  -0.335   0.001  -0.000
 -0.000  -0.001   0.001  -0.339  -0.000
  0.000   0.000  -0.000  -0.000  -0.339
 total augmentation occupancy for first ion, spin component:           1
  3.492  -0.630   0.403   0.108  -0.025
 -0.630   0.127  -0.075  -0.020   0.005
  0.403  -0.075   0.047   0.011  -0.002
  0.108  -0.020   0.011   0.011  -0.001
 -0.025   0.005  -0.002  -0.001   0.008


------------------------ aborting loop because EDIFF is reached ----------------------------------------


    CHARGE:  cpu time    0.1139: real time    0.1142
    FORLOC:  cpu time    0.1212: real time    0.1215
    FORNL :  cpu time    0.1921: real time    0.1926
    STRESS:  cpu time    0.6784: real time    0.6800
    FORCOR:  cpu time    1.8268: real time    1.8312
    FORHAR:  cpu time    0.5962: real time    0.5977
    MIXING:  cpu time    0.0553: real time    0.0554
    OFIELD:  cpu time    0.0000: real time    0.0000

  FORCE on cell =-STRESS in cart. coord.  units (eV):
  Direction    XX          YY          ZZ          XY          YZ          ZX
  --------------------------------------------------------------------------------------
  Alpha Z     0.23212     0.23212     0.23212
  Ewald      36.11902    48.26153    40.68231     1.93714    -1.45744    -4.79107
  Hartree    90.99463    95.93058    94.42949    -0.03772    -0.89881    -0.73529
  E(xc)     -26.95078   -26.89871   -26.94137     0.00439    -0.01829    -0.01633
  Local    -186.77032  -202.17794  -194.55479    -1.25255     2.43937     4.33988
  n-local   -15.34644   -15.27992   -15.31512    -0.05157    -0.04923     0.05531
  augment     0.13038     0.12019     0.12953    -0.00515    -0.00143     0.00893
  Kinetic   100.59126    97.87675   100.02966    -0.21764     0.80148     0.83459
  Fock        0.00000     0.00000     0.00000     0.00000     0.00000     0.00000
  -------------------------------------------------------------------------------------
  Total      -1.00012    -1.93539    -1.30816     0.37690     0.81564    -0.30399
  in kB      -1.53539    -2.97123    -2.00830     0.57862     1.25218    -0.46669
  external pressure =       -2.17 kB  Pullay stress =        0.00 kB


 VOLUME and BASIS-vectors are now :
 -----------------------------------------------------------------------------
  energy-cutoff  :      400.00
  volume of cell :     1043.62
      direct lattice vectors                 reciprocal lattice vectors
    10.283040100  0.000000000  0.000000000     0.097247506  0.001455494 -0.000446198
    -0.151212700 10.103137000  0.000000000     0.000000000  0.098979159 -0.000441363
     0.045420500  0.044793900 10.045377700     0.000000000 -0.000000000  0.099548273

  length of vectors
    10.283040100 10.104268530 10.045580255     0.097259421  0.098980143  0.099548273


 FORCES acting on ions
    electron-ion (+dipol)            ewald-force                    non-local-force                 convergence-correction
 -----------------------------------------------------------------------------------------------
   -.324E+01 0.500E+02 0.133E+02   0.357E+01 -.546E+02 -.148E+02   -.317E+00 0.517E+01 0.136E+01   0.122E-04 -.401E-04 -.585E-05
   0.273E+02 -.263E+02 0.320E+02   -.290E+02 0.276E+02 -.339E+02   0.246E+01 -.253E+01 0.293E+01   -.277E-04 0.225E-04 -.203E-04
   -.462E+02 -.239E+02 0.131E+01   0.508E+02 0.260E+02 -.125E+01   -.470E+01 -.257E+01 0.206E+00   0.497E-04 0.140E-04 0.770E-05
   0.220E+02 -.376E+01 -.471E+02   -.241E+02 0.420E+01 0.518E+02   0.232E+01 -.421E+00 -.487E+01   -.127E-04 0.593E-05 0.347E-04
   0.934E+00 0.329E+01 0.150E+01   -.121E+01 -.322E+01 -.188E+01   -.525E+00 0.108E+01 -.680E+00   0.687E-04 0.436E-04 0.361E-04
 -----------------------------------------------------------------------------------------------
   0.763E+00 -.739E+00 0.105E+01   -.355E-14 -.444E-15 0.711E-14   -.763E+00 0.739E+00 -.105E+01   0.903E-04 0.460E-04 0.523E-04


 POSITION                                       TOTAL-FORCE (eV/Angst)
 -----------------------------------------------------------------------------------
      5.18934      3.67486      4.18457         0.012986      0.529935     -0.052598
      4.48404      5.36832      3.72369         0.689319     -1.254362      1.029743
      6.10042      5.25977      4.44249        -0.105252     -0.455915      0.267203
      4.65325      4.83052      5.46950         0.207993      0.019005     -0.189932
      5.12093      4.74409      4.47276        -0.805046      1.161337     -1.054416
 -----------------------------------------------------------------------------------
    total drift:                               -0.000115      0.000773     -0.000226


--------------------------------------------------------------------------------------------------------



  FREE ENERGIE OF THE ION-ELECTRON SYSTEM (eV)
  ---------------------------------------------------
  free  energy   TOTEN  =       -23.92883065 eV

  energy  without entropy=      -23.92883065  energy(sigma->0) =      -23.92883065



--------------------------------------------------------------------------------------------------------


    POTLOK:  cpu time    1.8102: real time    1.8145


--------------------------------------------------------------------------------------------------------


     LOOP+:  cpu time   50.7926: real time   50.9182
    4ORBIT:  cpu time    0.0000: real time    0.0000

 total amount of memory used by VASP MPI-rank0   297471. kBytes
=======================================================================

   base      :      30000. kBytes
   nonlr-proj:       1290. kBytes
   fftplans  :      94700. kBytes
   grid      :     169030. kBytes
   one-center:         15. kBytes
   wavefun   :       2436. kBytes

  
  
 General timing and accounting informations for this job:
 ========================================================
  
                  Total CPU time used (sec):       52.608
                            User time (sec):       51.056
                          System time (sec):        1.552
                         Elapsed time (sec):       52.751
  
                   Maximum memory used (kb):      422904.
                   Average memory used (kb):           0.
  
                          Minor page faults:       233004
                          Major page faults:            0
                 Voluntary context switches:          145
