 vasp.5.4.4.18Apr17-6-g9f103f2a35 (build Jul 12 2018 13:43:46) complex           
 executed on             LinuxGNU date 2019.06.25  21:09:22
 running on    1 total cores
 distrk:  each k-point on    1 cores,    1 groups
 distr:  one band on NCORES_PER_BAND=   1 cores,    1 groups


--------------------------------------------------------------------------------------------------------


 INCAR:
 POTCAR:    PAW_PBE H 15Jun2001                   
 POTCAR:    PAW_PBE C 08Apr2002                   
 POTCAR:    PAW_PBE H 15Jun2001                   
   VRHFIN =H: ultrasoft test                                                    
   LEXCH  = PE                                                                  
   EATOM  =    12.4884 eV,    0.9179 Ry                                         
                                                                                
   TITEL  = PAW_PBE H 15Jun2001                                                 
   LULTRA =        F    use ultrasoft PP ?                                      
   IUNSCR =        0    unscreen: 0-lin 1-nonlin 2-no                           
   RPACOR =    0.000    partial core radius                                     
   POMASS =    1.000; ZVAL   =    1.000    mass and valenz                      
   RCORE  =    1.100    outmost cutoff radius                                   
   RWIGS  =    0.700; RWIGS  =    0.370    wigner-seitz radius (au A)           
   ENMAX  =  250.000; ENMIN  =  200.000 eV                                      
   RCLOC  =    0.701    cutoff for local pot                                    
   LCOR   =        T    correct aug charges                                     
   LPAW   =        T    paw PP                                                  
   EAUG   =  400.000                                                            
   RMAX   =    1.123    core radius for proj-oper                               
   RAUG   =    1.200    factor for augmentation sphere                          
   RDEP   =    1.112    radius for radial grids                                 
   RDEPT  =    0.926    core radius for aug-charge                              
                                                                                
   Atomic configuration                                                         
    2 entries                                                                   
     n  l   j            E        occ.                                          
     1  0  0.50        -6.4927   1.0000                                         
     2  1  0.50        -3.4015   0.0000                                         
   Description                                                                  
     l       E           TYP  RCUT    TYP  RCUT                                 
     0     -6.4927494     23  1.100                                             
     0      6.8029130     23  1.100                                             
     1     -4.0817478     23  1.100                                             
  local pseudopotential read in
  atomic valenz-charges read in
  non local Contribution for L=           0  read in
    real space projection operators read in
  non local Contribution for L=           0  read in
    real space projection operators read in
  non local Contribution for L=           1  read in
    real space projection operators read in
    PAW grid and wavefunctions read in

   number of l-projection  operators is LMAX  =           3
   number of lm-projection operators is LMMAX =           5

 POTCAR:    PAW_PBE C 08Apr2002                   
   VRHFIN =C: s2p2                                                              
   LEXCH  = PE                                                                  
   EATOM  =   147.1560 eV,   10.8157 Ry                                         
                                                                                
   TITEL  = PAW_PBE C 08Apr2002                                                 
   LULTRA =        F    use ultrasoft PP ?                                      
   IUNSCR =        1    unscreen: 0-lin 1-nonlin 2-no                           
   RPACOR =    1.200    partial core radius                                     
   POMASS =   12.011; ZVAL   =    4.000    mass and valenz                      
   RCORE  =    1.500    outmost cutoff radius                                   
   RWIGS  =    1.630; RWIGS  =    0.863    wigner-seitz radius (au A)           
   ENMAX  =  400.000; ENMIN  =  300.000 eV                                      
   ICORE  =        2    local potential                                         
   LCOR   =        T    correct aug charges                                     
   LPAW   =        T    paw PP                                                  
   EAUG   =  644.873                                                            
   DEXC   =    0.000                                                            
   RMAX   =    1.529    core radius for proj-oper                               
   RAUG   =    1.300    factor for augmentation sphere                          
   RDEP   =    1.501    radius for radial grids                                 
   RDEPT  =    1.300    core radius for aug-charge                              
                                                                                
   Atomic configuration                                                         
    4 entries                                                                   
     n  l   j            E        occ.                                          
     1  0  0.50      -273.3789   2.0000                                         
     2  0  0.50       -13.7508   2.0000                                         
     2  1  0.50        -5.2854   2.0000                                         
     3  2  1.50        -5.4423   0.0000                                         
   Description                                                                  
     l       E           TYP  RCUT    TYP  RCUT                                 
     0    -13.7508458     23  1.200                                             
     0     -8.2022199     23  1.200                                             
     1     -5.2854383     23  1.500                                             
     1     34.0145650     23  1.500                                             
     2     -5.4423304      7  1.500                                             
  local pseudopotential read in
  partial core-charges read in
  partial kinetic energy density read in
  atomic valenz-charges read in
  non local Contribution for L=           0  read in
    real space projection operators read in
  non local Contribution for L=           0  read in
    real space projection operators read in
  non local Contribution for L=           1  read in
    real space projection operators read in
  non local Contribution for L=           1  read in
    real space projection operators read in
    PAW grid and wavefunctions read in

   number of l-projection  operators is LMAX  =           4
   number of lm-projection operators is LMMAX =           8


 ----------------------------------------------------------------------------- 
|                                                                             |
|  ADVICE TO THIS USER RUNNING 'VASP/VAMP'   (HEAR YOUR MASTER'S VOICE ...):  |
|                                                                             |
|      You have a (more or less) 'small supercell' and for smaller cells      |
|      it is recommended  to use the reciprocal-space projection scheme!      |
|      The real space optimization is not  efficient for small cells and it   |
|      is also less accurate ...                                              |
|      Therefore set LREAL=.FALSE. in the  INCAR file                         |
|                                                                             |
 ----------------------------------------------------------------------------- 

 Optimization of the real space projectors (new method)

 maximal supplied QI-value         = 34.20
 optimisation between [QCUT,QGAM] = [  9.92, 20.18] = [ 27.55,114.04] Ry 
 Optimized for a Real-space Cutoff    1.34 Angstroem

   l    n(q)    QCUT    max X(q) W(low)/X(q) W(high)/X(q)  e(spline) 
   0      8     9.919    19.460    0.16E-03    0.20E-03    0.36E-06
   0      8     9.919    12.209    0.16E-03    0.20E-03    0.35E-06
   1      8     9.919     4.655    0.19E-03    0.46E-03    0.40E-06
 Optimization of the real space projectors (new method)

 maximal supplied QI-value         = 25.13
 optimisation between [QCUT,QGAM] = [ 10.05, 20.36] = [ 28.30,116.06] Ry 
 Optimized for a Real-space Cutoff    1.51 Angstroem

   l    n(q)    QCUT    max X(q) W(low)/X(q) W(high)/X(q)  e(spline) 
   0      9    10.053   115.676    0.19E-03    0.21E-03    0.38E-06
   0      9    10.053    87.132    0.19E-03    0.21E-03    0.38E-06
   1      9    10.053     4.429    0.87E-04    0.11E-03    0.39E-06
   1      9    10.053     2.733    0.59E-04    0.62E-04    0.43E-06
  PAW_PBE H 15Jun2001                   :
 energy of atom  1       EATOM=  -12.4884
 kinetic energy error for atom=    0.0098 (will be added to EATOM!!)
  PAW_PBE C 08Apr2002                   :
 energy of atom  2       EATOM= -147.1560
 kinetic energy error for atom=    0.0288 (will be added to EATOM!!)


 POSCAR: POSCAR file written by OVITO            
  positions in cartesian coordinates
  No initial velocities read in
 exchange correlation table for  LEXCH =        8
   RHO(1)=    0.500       N(1)  =     2000
   RHO(2)=  100.500       N(2)  =     4000



--------------------------------------------------------------------------------------------------------


 ion  position               nearest neighbor table
   1  0.432  0.380  0.470-   5 1.15
   2  0.596  0.432  0.400-   5 1.10
   3  0.520  0.519  0.536-   5 1.08
   4  0.444  0.529  0.372-   5 1.11
   5  0.504  0.470  0.444-   3 1.08   2 1.10   4 1.11   1 1.15


IMPORTANT INFORMATION: All symmetrisations will be switched off!
NOSYMM: (Re-)initialisation of all symmetry stuff for point group C_1.




Automatic generation of k-mesh.
 generate k-points for:    1    1    1
Space group operators:
 irot       det(A)        alpha          n_x          n_y          n_z        tau_x        tau_y        tau_z
    1     1.000000     0.000000     1.000000     0.000000     0.000000     0.000000     0.000000     0.000000
 
 Subroutine IBZKPT returns following result:
 ===========================================
 
 Found      1 irreducible k-points:
 
 Following reciprocal coordinates:
            Coordinates               Weight
  0.000000  0.000000  0.000000      1.000000
 
 Following cartesian coordinates:
            Coordinates               Weight
  0.000000  0.000000  0.000000      1.000000
 


--------------------------------------------------------------------------------------------------------




 Dimension of arrays:
   k-points           NKPTS =      1   k-points in BZ     NKDIM =      1   number of bands    NBANDS=      8
   number of dos      NEDOS =    301   number of ions     NIONS =      5
   non local maximal  LDIM  =      4   non local SUM 2l+1 LMDIM =      8
   total plane-waves  NPLWV = 313600
   max r-space proj   IRMAX =   4575   max aug-charges    IRDMAX=   3913
   dimension x,y,z NGX =    70 NGY =   64 NGZ =   70
   dimension x,y,z NGXF=   140 NGYF=  128 NGZF=  140
   support grid    NGXF=   140 NGYF=  128 NGZF=  140
   ions per type =               4   1
   NGX,Y,Z   is equivalent  to a cutoff of  11.63, 10.92, 11.38 a.u.
   NGXF,Y,Z  is equivalent  to a cutoff of  23.26, 21.84, 22.76 a.u.

 SYSTEM =  unknown system                          
 POSCAR =  POSCAR file written by OVITO            

 Startparameter for this run:
   NWRITE =      2    write-flag & timer
   PREC   = a         normal or accurate (medium, high low for compatibility)
   ISTART =      0    job   : 0-new  1-cont  2-samecut
   ICHARG =      2    charge: 1-file 2-atom 10-const
   ISPIN  =      1    spin polarized calculation?
   LNONCOLLINEAR =      F non collinear calculations
   LSORBIT =      F    spin-orbit coupling
   INIWAV =      1    electr: 0-lowe 1-rand  2-diag
   LASPH  =      F    aspherical Exc in radial PAW
   METAGGA=      F    non-selfconsistent MetaGGA calc.

 Electronic Relaxation 1
   ENCUT  =  400.0 eV  29.40 Ry    5.42 a.u.  16.32 15.89 16.67*2*pi/ulx,y,z
   ENINI  =  400.0     initial cutoff
   ENAUG  =  644.9 eV  augmentation charge cutoff
   NELM   =    120;   NELMIN=  4; NELMDL= -5     # of ELM steps 
   EDIFF  = 0.1E-05   stopping-criterion for ELM
   LREAL  =      T    real-space projection
   NLSPLINE    = F    spline interpolate recip. space projectors
   LCOMPAT=      F    compatible to vasp.4.4
   GGA_COMPAT  = T    GGA compatible to vasp.4.4-vasp.4.6
   LMAXPAW     = -100 max onsite density
   LMAXMIX     =    2 max onsite mixed and CHGCAR
   VOSKOWN=      0    Vosko Wilk Nusair interpolation
   ROPT   =   -0.00025  -0.00025
 Ionic relaxation
   EDIFFG = 0.1E-04   stopping-criterion for IOM
   NSW    =      0    number of steps for IOM
   NBLOCK =      1;   KBLOCK =      1    inner block; outer block 
   IBRION =     -1    ionic relax: 0-MD 1-quasi-New 2-CG
   NFREE  =      0    steps in history (QN), initial steepest desc. (CG)
   ISIF   =      2    stress and relaxation
   IWAVPR =     10    prediction:  0-non 1-charg 2-wave 3-comb
   ISYM   =      0    0-nonsym 1-usesym 2-fastsym
   LCORR  =      T    Harris-Foulkes like correction to forces

   POTIM  = 0.5000    time-step for ionic-motion
   TEIN   =    0.0    initial temperature
   TEBEG  =    0.0;   TEEND  =   0.0 temperature during run
   SMASS  =  -3.00    Nose mass-parameter (am)
   estimated Nose-frequenzy (Omega)   =  0.10E-29 period in steps =****** mass=  -0.229E-26a.u.
   SCALEE = 1.0000    scale energy and forces
   NPACO  =    256;   APACO  = 16.0  distance and # of slots for P.C.
   PSTRESS=    0.0 pullay stress

  Mass of Ions in am
   POMASS =   1.00 12.01
  Ionic Valenz
   ZVAL   =   1.00  4.00
  Atomic Wigner-Seitz radii
   RWIGS  =  -1.00 -1.00
  virtual crystal weights 
   VCA    =   1.00  1.00
   NELECT =       8.0000    total number of electrons
   NUPDOWN=      -1.0000    fix difference up-down

 DOS related values:
   EMIN   =  10.00;   EMAX   =-10.00  energy-range for DOS
   EFERMI =   0.00
   ISMEAR =     0;   SIGMA  =   0.05  broadening in eV -4-tet -1-fermi 0-gaus

 Electronic relaxation 2 (details)
   IALGO  =     38    algorithm
   LDIAG  =      T    sub-space diagonalisation (order eigenvalues)
   LSUBROT=      F    optimize rotation matrix (better conditioning)
   TURBO    =      0    0=normal 1=particle mesh
   IRESTART =      0    0=no restart 2=restart with 2 vectors
   NREBOOT  =      0    no. of reboots
   NMIN     =      0    reboot dimension
   EREF     =   0.00    reference energy to select bands
   IMIX   =      4    mixing-type and parameters
     AMIX     =   0.40;   BMIX     =  1.00
     AMIX_MAG =   1.60;   BMIX_MAG =  1.00
     AMIN     =   0.10
     WC   =   100.;   INIMIX=   1;  MIXPRE=   1;  MAXMIX= -45

 Intra band minimization:
   WEIMIN = 0.0000     energy-eigenvalue tresh-hold
   EBREAK =  0.31E-07  absolut break condition
   DEPER  =   0.30     relativ break condition  

   TIME   =   0.40     timestep for ELM

  volume/ion in A,a.u.               =     199.29      1344.86
  Fermi-wavevector in a.u.,A,eV,Ry     =   0.327809  0.619470  1.462068  0.107459
  Thomas-Fermi vector in A             =   1.220856

 Write flags
   LWAVE        =      F    write WAVECAR
   LDOWNSAMPLE  =      F    k-point downsampling of WAVECAR
   LCHARG       =      F    write CHGCAR
   LVTOT        =      F    write LOCPOT, total local potential
   LVHAR        =      F    write LOCPOT, Hartree potential only
   LELF         =      F    write electronic localiz. function (ELF)
   LORBIT       =      0    0 simple, 1 ext, 2 COOP (PROOUT), +10 PAW based schemes


 Dipole corrections
   LMONO  =      F    monopole corrections only (constant potential shift)
   LDIPOL =      F    correct potential (dipole corrections)
   IDIPOL =      0    1-x, 2-y, 3-z, 4-all directions 
   EPSILON=  1.0000000 bulk dielectric constant

 Exchange correlation treatment:
   GGA     =    --    GGA type
   LEXCH   =     8    internal setting for exchange type
   VOSKOWN=      0    Vosko Wilk Nusair interpolation
   LHFCALC =     F    Hartree Fock is set to
   LHFONE  =     F    Hartree Fock one center treatment
   AEXX    =    0.0000 exact exchange contribution

 Linear response parameters
   LEPSILON=     F    determine dielectric tensor
   LRPA    =     F    only Hartree local field effects (RPA)
   LNABLA  =     F    use nabla operator in PAW spheres
   LVEL    =     F    velocity operator in full k-point grid
   LINTERFAST=   F  fast interpolation
   KINTER  =     0    interpolate to denser k-point grid
   CSHIFT  =0.1000    complex shift for real part using Kramers Kronig
   OMEGAMAX=  -1.0    maximum frequency
   DEG_THRESHOLD= 0.2000000E-02 threshold for treating states as degnerate
   RTIME   =   -0.100 relaxation time in fs
  (WPLASMAI=    0.000 imaginary part of plasma frequency in eV, 0.658/RTIME)
   DFIELD  = 0.0000000 0.0000000 0.0000000 field for delta impulse in time

 Orbital magnetization related:
   ORBITALMAG=     F  switch on orbital magnetization
   LCHIMAG   =     F  perturbation theory with respect to B field
   DQ        =  0.001000  dq finite difference perturbation B field
   LLRAUG    =     F  two centre corrections for induced B field



--------------------------------------------------------------------------------------------------------


 Static calculation
 charge density and potential will be updated during run
 non-spin polarized calculation
 Variant of blocked Davidson
 Davidson routine will perform the subspace rotation
 perform sub-space diagonalisation
    after iterative eigenvector-optimisation
 modified Broyden-mixing scheme, WC =      100.0
 initial mixing is a Kerker type mixing with AMIX =  0.4000 and BMIX =      1.0000
 Hartree-type preconditioning will be used
 using additional bands            4
 real space projection scheme for non local part
 use partial core corrections
 calculate Harris-corrections to forces   (improved forces if not selfconsistent)
 use gradient corrections 
 use of overlap-Matrix (Vanderbilt PP)
 Gauss-broadening in eV      SIGMA  =   0.05


--------------------------------------------------------------------------------------------------------


  energy-cutoff  :      400.00
  volume of cell :      996.44
      direct lattice vectors                 reciprocal lattice vectors
    10.006619500  0.000000000  0.000000000     0.099933849  0.002269562  0.000748798
    -0.221244500  9.741885200  0.000000000     0.000000000  0.102649536 -0.002424515
    -0.082073000  0.241428100 10.221626300     0.000000000 -0.000000000  0.097831790

  length of vectors
    10.006619500  9.744397179 10.224806488     0.099962422  0.102678165  0.097831790



 k-points in units of 2pi/SCALE and weight: read from INCAR                         
   0.00000000  0.00000000  0.00000000       1.000

 k-points in reciprocal lattice and weights: read from INCAR                         
   0.00000000  0.00000000  0.00000000       1.000

 position of ions in fractional coordinates (direct lattice) 
   0.43199378  0.38007184  0.47005141
   0.59584808  0.43153657  0.40049399
   0.52012845  0.51871972  0.53615245
   0.44418966  0.52932517  0.37242997
   0.50413783  0.46961328  0.44407123

 position of ions in cartesian coordinates  (Angst):
   4.20013000  3.81609990  4.80468990
   5.83408020  4.30067020  4.09369990
   5.04596000  5.18275020  5.48035000
   4.29716020  5.24654010  3.80684000
   4.90436980  4.68212990  4.53913020



--------------------------------------------------------------------------------------------------------


 k-point  1 :   0.0000 0.0000 0.0000  plane waves:   18093

 maximum and minimum number of plane-waves per node :     18093    18093

 maximum number of plane-waves:     18093
 maximum index in each direction: 
   IXMAX=   16   IYMAX=   15   IZMAX=   16
   IXMIN=  -16   IYMIN=  -15   IZMIN=  -16


 serial   3D FFT for wavefunctions
 parallel 3D FFT for charge:
    minimum data exchange during FFTs selected (reduces bandwidth)


 total amount of memory used by VASP MPI-rank0   274694. kBytes
=======================================================================

   base      :      30000. kBytes
   nonlr-proj:       1234. kBytes
   fftplans  :      86584. kBytes
   grid      :     154542. kBytes
   one-center:         15. kBytes
   wavefun   :       2319. kBytes

     INWAV:  cpu time    0.0000: real time    0.0000
 Broyden mixing: mesh for mixing (old mesh)
   NGX = 33   NGY = 31   NGZ = 33
  (NGX  =140   NGY  =128   NGZ  =140)
  gives a total of  33759 points

 initial charge density was supplied:
 charge density of overlapping atoms calculated
 number of electron       8.0000000 magnetization 
 keeping initial charge density in first step


--------------------------------------------------------------------------------------------------------


 Maximum index for non-local projection operator         4385
 Maximum index for augmentation-charges         3602 (set IRDMAX)


--------------------------------------------------------------------------------------------------------


 First call to EWALD:  gamma=   0.177
 Maximum number of real-space cells 3x 3x 3
 Maximum number of reciprocal cells 3x 3x 3

    FEWALD:  cpu time    0.0007: real time    0.0007


--------------------------------------- Iteration      1(   1)  ---------------------------------------


    POTLOK:  cpu time    1.4924: real time    1.4961
    SETDIJ:  cpu time    0.0064: real time    0.0064
     EDDAV:  cpu time    0.4130: real time    0.4140
       DOS:  cpu time    0.0001: real time    0.0001
    --------------------------------------------
      LOOP:  cpu time    1.9120: real time    1.9167

 eigenvalue-minimisations  :    16
 total energy-change (2. order) : 0.6148558E+02  (-0.1513608E+03)
 number of electron       8.0000000 magnetization 
 augmentation part        8.0000000 magnetization 

 Free energy of the ion-electron system (eV)
  ---------------------------------------------------
  alpha Z        PSCENC =         0.24311671
  Ewald energy   TEWEN  =       126.50885298
  -Hartree energ DENC   =      -242.79082396
  -exchange      EXHF   =         0.00000000
  -V(xc)+E(xc)   XCENC  =        21.95846036
  PAW double counting   =       117.05815612     -117.66307307
  entropy T*S    EENTRO =        -0.00000000
  eigenvalues    EBANDS =       -40.87086143
  atomic energy  EATOM  =       197.04175453
  Solvation  Ediel_sol  =         0.00000000
  ---------------------------------------------------
  free energy    TOTEN  =        61.48558224 eV

  energy without entropy =       61.48558224  energy(sigma->0) =       61.48558224


--------------------------------------------------------------------------------------------------------




--------------------------------------- Iteration      1(   2)  ---------------------------------------


     EDDAV:  cpu time    0.7200: real time    0.7218
       DOS:  cpu time    0.0001: real time    0.0001
    --------------------------------------------
      LOOP:  cpu time    0.7201: real time    0.7219

 eigenvalue-minimisations  :    32
 total energy-change (2. order) :-0.7465563E+02  (-0.7465563E+02)
 number of electron       8.0000000 magnetization 
 augmentation part        8.0000000 magnetization 

 Free energy of the ion-electron system (eV)
  ---------------------------------------------------
  alpha Z        PSCENC =         0.24311671
  Ewald energy   TEWEN  =       126.50885298
  -Hartree energ DENC   =      -242.79082396
  -exchange      EXHF   =         0.00000000
  -V(xc)+E(xc)   XCENC  =        21.95846036
  PAW double counting   =       117.05815612     -117.66307307
  entropy T*S    EENTRO =        -0.00000000
  eigenvalues    EBANDS =      -115.52649216
  atomic energy  EATOM  =       197.04175453
  Solvation  Ediel_sol  =         0.00000000
  ---------------------------------------------------
  free energy    TOTEN  =       -13.17004850 eV

  energy without entropy =      -13.17004850  energy(sigma->0) =      -13.17004850


--------------------------------------------------------------------------------------------------------




--------------------------------------- Iteration      1(   3)  ---------------------------------------


     EDDAV:  cpu time    0.4139: real time    0.4149
       DOS:  cpu time    0.0001: real time    0.0001
    --------------------------------------------
      LOOP:  cpu time    0.4140: real time    0.4150

 eigenvalue-minimisations  :    16
 total energy-change (2. order) :-0.1336669E+02  (-0.1336669E+02)
 number of electron       8.0000000 magnetization 
 augmentation part        8.0000000 magnetization 

 Free energy of the ion-electron system (eV)
  ---------------------------------------------------
  alpha Z        PSCENC =         0.24311671
  Ewald energy   TEWEN  =       126.50885298
  -Hartree energ DENC   =      -242.79082396
  -exchange      EXHF   =         0.00000000
  -V(xc)+E(xc)   XCENC  =        21.95846036
  PAW double counting   =       117.05815612     -117.66307307
  entropy T*S    EENTRO =        -0.00000000
  eigenvalues    EBANDS =      -128.89317831
  atomic energy  EATOM  =       197.04175453
  Solvation  Ediel_sol  =         0.00000000
  ---------------------------------------------------
  free energy    TOTEN  =       -26.53673464 eV

  energy without entropy =      -26.53673464  energy(sigma->0) =      -26.53673464


--------------------------------------------------------------------------------------------------------




--------------------------------------- Iteration      1(   4)  ---------------------------------------


     EDDAV:  cpu time    0.7528: real time    0.7546
       DOS:  cpu time    0.0001: real time    0.0001
    --------------------------------------------
      LOOP:  cpu time    0.7529: real time    0.7547

 eigenvalue-minimisations  :    32
 total energy-change (2. order) :-0.7794935E+00  (-0.7794935E+00)
 number of electron       8.0000000 magnetization 
 augmentation part        8.0000000 magnetization 

 Free energy of the ion-electron system (eV)
  ---------------------------------------------------
  alpha Z        PSCENC =         0.24311671
  Ewald energy   TEWEN  =       126.50885298
  -Hartree energ DENC   =      -242.79082396
  -exchange      EXHF   =         0.00000000
  -V(xc)+E(xc)   XCENC  =        21.95846036
  PAW double counting   =       117.05815612     -117.66307307
  entropy T*S    EENTRO =        -0.00000000
  eigenvalues    EBANDS =      -129.67267183
  atomic energy  EATOM  =       197.04175453
  Solvation  Ediel_sol  =         0.00000000
  ---------------------------------------------------
  free energy    TOTEN  =       -27.31622816 eV

  energy without entropy =      -27.31622816  energy(sigma->0) =      -27.31622816


--------------------------------------------------------------------------------------------------------




--------------------------------------- Iteration      1(   5)  ---------------------------------------


     EDDAV:  cpu time    0.7361: real time    0.7378
       DOS:  cpu time    0.0001: real time    0.0001
    CHARGE:  cpu time    0.0822: real time    0.0824
    MIXING:  cpu time    0.0323: real time    0.0324
    --------------------------------------------
      LOOP:  cpu time    0.8506: real time    0.8527

 eigenvalue-minimisations  :    32
 total energy-change (2. order) :-0.4739371E-03  (-0.4739369E-03)
 number of electron       8.0000005 magnetization 
 augmentation part        0.2218160 magnetization 

 Broyden mixing:
  rms(total) = 0.85484E+00    rms(broyden)= 0.85464E+00
  rms(prec ) = 0.12084E+01
  weight for this iteration     100.00

 Free energy of the ion-electron system (eV)
  ---------------------------------------------------
  alpha Z        PSCENC =         0.24311671
  Ewald energy   TEWEN  =       126.50885298
  -Hartree energ DENC   =      -242.79082396
  -exchange      EXHF   =         0.00000000
  -V(xc)+E(xc)   XCENC  =        21.95846036
  PAW double counting   =       117.05815612     -117.66307307
  entropy T*S    EENTRO =        -0.00000000
  eigenvalues    EBANDS =      -129.67314577
  atomic energy  EATOM  =       197.04175453
  Solvation  Ediel_sol  =         0.00000000
  ---------------------------------------------------
  free energy    TOTEN  =       -27.31670210 eV

  energy without entropy =      -27.31670210  energy(sigma->0) =      -27.31670210


--------------------------------------------------------------------------------------------------------




--------------------------------------- Iteration      1(   6)  ---------------------------------------


    POTLOK:  cpu time    1.5365: real time    1.5401
    SETDIJ:  cpu time    0.0063: real time    0.0063
     EDDAV:  cpu time    0.5910: real time    0.5925
       DOS:  cpu time    0.0001: real time    0.0001
    CHARGE:  cpu time    0.0776: real time    0.0778
    MIXING:  cpu time    0.0328: real time    0.0328
    --------------------------------------------
      LOOP:  cpu time    2.2444: real time    2.2497

 eigenvalue-minimisations  :    24
 total energy-change (2. order) : 0.2776451E+01  (-0.8657926E+00)
 number of electron       8.0000004 magnetization 
 augmentation part        0.1941383 magnetization 

 Broyden mixing:
  rms(total) = 0.43753E+00    rms(broyden)= 0.43742E+00
  rms(prec ) = 0.54773E+00
  weight for this iteration     100.00

 eigenvalues of (default mixing * dielectric matrix)
  average eigenvalue GAMMA=   1.1916
  1.1916

 Free energy of the ion-electron system (eV)
  ---------------------------------------------------
  alpha Z        PSCENC =         0.24311671
  Ewald energy   TEWEN  =       126.50885298
  -Hartree energ DENC   =      -262.14042753
  -exchange      EXHF   =         0.00000000
  -V(xc)+E(xc)   XCENC  =        23.13209377
  PAW double counting   =       235.36574799     -236.14059012
  entropy T*S    EENTRO =        -0.00000000
  eigenvalues    EBANDS =      -108.55079932
  atomic energy  EATOM  =       197.04175453
  Solvation  Ediel_sol  =         0.00000000
  ---------------------------------------------------
  free energy    TOTEN  =       -24.54025098 eV

  energy without entropy =      -24.54025098  energy(sigma->0) =      -24.54025098


--------------------------------------------------------------------------------------------------------




--------------------------------------- Iteration      1(   7)  ---------------------------------------


    POTLOK:  cpu time    1.5445: real time    1.5481
    SETDIJ:  cpu time    0.0064: real time    0.0064
     EDDAV:  cpu time    0.7512: real time    0.7530
       DOS:  cpu time    0.0001: real time    0.0001
    CHARGE:  cpu time    0.0811: real time    0.0813
    MIXING:  cpu time    0.0331: real time    0.0332
    --------------------------------------------
      LOOP:  cpu time    2.4165: real time    2.4222

 eigenvalue-minimisations  :    32
 total energy-change (2. order) : 0.4594690E+00  (-0.6757395E-01)
 number of electron       8.0000004 magnetization 
 augmentation part        0.1860786 magnetization 

 Broyden mixing:
  rms(total) = 0.22405E+00    rms(broyden)= 0.22401E+00
  rms(prec ) = 0.27600E+00
  weight for this iteration     100.00

 eigenvalues of (default mixing * dielectric matrix)
  average eigenvalue GAMMA=   1.6943
  1.2414  2.1473

 Free energy of the ion-electron system (eV)
  ---------------------------------------------------
  alpha Z        PSCENC =         0.24311671
  Ewald energy   TEWEN  =       126.50885298
  -Hartree energ DENC   =      -271.83908636
  -exchange      EXHF   =         0.00000000
  -V(xc)+E(xc)   XCENC  =        23.86561017
  PAW double counting   =       356.96495841     -357.76512145
  entropy T*S    EENTRO =        -0.00000000
  eigenvalues    EBANDS =       -99.10086696
  atomic energy  EATOM  =       197.04175453
  Solvation  Ediel_sol  =         0.00000000
  ---------------------------------------------------
  free energy    TOTEN  =       -24.08078197 eV

  energy without entropy =      -24.08078197  energy(sigma->0) =      -24.08078197


--------------------------------------------------------------------------------------------------------




--------------------------------------- Iteration      1(   8)  ---------------------------------------


    POTLOK:  cpu time    1.5785: real time    1.5822
    SETDIJ:  cpu time    0.0065: real time    0.0065
     EDDAV:  cpu time    0.8034: real time    0.8053
       DOS:  cpu time    0.0001: real time    0.0001
    CHARGE:  cpu time    0.0874: real time    0.0876
    MIXING:  cpu time    0.0343: real time    0.0343
    --------------------------------------------
      LOOP:  cpu time    2.5101: real time    2.5161

 eigenvalue-minimisations  :    32
 total energy-change (2. order) : 0.1615903E+00  (-0.1797639E-01)
 number of electron       8.0000004 magnetization 
 augmentation part        0.1835424 magnetization 

 Broyden mixing:
  rms(total) = 0.26834E-01    rms(broyden)= 0.26807E-01
  rms(prec ) = 0.54760E-01
  weight for this iteration     100.00

 eigenvalues of (default mixing * dielectric matrix)
  average eigenvalue GAMMA=   1.5451
  2.1554  1.1061  1.3737

 Free energy of the ion-electron system (eV)
  ---------------------------------------------------
  alpha Z        PSCENC =         0.24311671
  Ewald energy   TEWEN  =       126.50885298
  -Hartree energ DENC   =      -278.78973612
  -exchange      EXHF   =         0.00000000
  -V(xc)+E(xc)   XCENC  =        24.48640707
  PAW double counting   =       465.63975939     -466.42554388
  entropy T*S    EENTRO =        -0.00000000
  eigenvalues    EBANDS =       -92.62380236
  atomic energy  EATOM  =       197.04175453
  Solvation  Ediel_sol  =         0.00000000
  ---------------------------------------------------
  free energy    TOTEN  =       -23.91919167 eV

  energy without entropy =      -23.91919167  energy(sigma->0) =      -23.91919167


--------------------------------------------------------------------------------------------------------




--------------------------------------- Iteration      1(   9)  ---------------------------------------


    POTLOK:  cpu time    1.5772: real time    1.5810
    SETDIJ:  cpu time    0.0065: real time    0.0065
     EDDAV:  cpu time    0.8023: real time    0.8042
       DOS:  cpu time    0.0001: real time    0.0001
    CHARGE:  cpu time    0.0844: real time    0.0846
    MIXING:  cpu time    0.0354: real time    0.0355
    --------------------------------------------
      LOOP:  cpu time    2.5059: real time    2.5119

 eigenvalue-minimisations  :    32
 total energy-change (2. order) : 0.6601010E-02  (-0.3295467E-03)
 number of electron       8.0000004 magnetization 
 augmentation part        0.1830122 magnetization 

 Broyden mixing:
  rms(total) = 0.16396E-01    rms(broyden)= 0.16392E-01
  rms(prec ) = 0.36704E-01
  weight for this iteration     100.00

 eigenvalues of (default mixing * dielectric matrix)
  average eigenvalue GAMMA=   1.8917
  2.9414  2.4545  0.9839  1.1870

 Free energy of the ion-electron system (eV)
  ---------------------------------------------------
  alpha Z        PSCENC =         0.24311671
  Ewald energy   TEWEN  =       126.50885298
  -Hartree energ DENC   =      -280.06509775
  -exchange      EXHF   =         0.00000000
  -V(xc)+E(xc)   XCENC  =        24.55457642
  PAW double counting   =       463.16001516     -463.94369133
  entropy T*S    EENTRO =        -0.00000000
  eigenvalues    EBANDS =       -91.41211738
  atomic energy  EATOM  =       197.04175453
  Solvation  Ediel_sol  =         0.00000000
  ---------------------------------------------------
  free energy    TOTEN  =       -23.91259066 eV

  energy without entropy =      -23.91259066  energy(sigma->0) =      -23.91259066


--------------------------------------------------------------------------------------------------------




--------------------------------------- Iteration      1(  10)  ---------------------------------------


    POTLOK:  cpu time    1.5228: real time    1.5264
    SETDIJ:  cpu time    0.0066: real time    0.0066
     EDDAV:  cpu time    0.4591: real time    0.4602
       DOS:  cpu time    0.0001: real time    0.0001
    CHARGE:  cpu time    0.0836: real time    0.0838
    MIXING:  cpu time    0.0359: real time    0.0360
    --------------------------------------------
      LOOP:  cpu time    2.1082: real time    2.1132

 eigenvalue-minimisations  :    16
 total energy-change (2. order) : 0.8854123E-02  (-0.5667382E-03)
 number of electron       8.0000004 magnetization 
 augmentation part        0.1828159 magnetization 

 Broyden mixing:
  rms(total) = 0.69468E-02    rms(broyden)= 0.69452E-02
  rms(prec ) = 0.16381E-01
  weight for this iteration     100.00

 eigenvalues of (default mixing * dielectric matrix)
  average eigenvalue GAMMA=   1.9315
  3.0988  1.0028  1.1846  2.1856  2.1856

 Free energy of the ion-electron system (eV)
  ---------------------------------------------------
  alpha Z        PSCENC =         0.24311671
  Ewald energy   TEWEN  =       126.50885298
  -Hartree energ DENC   =      -281.69749450
  -exchange      EXHF   =         0.00000000
  -V(xc)+E(xc)   XCENC  =        24.62799136
  PAW double counting   =       453.88510294     -454.66434641
  entropy T*S    EENTRO =        -0.00000000
  eigenvalues    EBANDS =       -89.84871416
  atomic energy  EATOM  =       197.04175453
  Solvation  Ediel_sol  =         0.00000000
  ---------------------------------------------------
  free energy    TOTEN  =       -23.90373654 eV

  energy without entropy =      -23.90373654  energy(sigma->0) =      -23.90373654


--------------------------------------------------------------------------------------------------------




--------------------------------------- Iteration      1(  11)  ---------------------------------------


    POTLOK:  cpu time    1.4376: real time    1.4410
    SETDIJ:  cpu time    0.0065: real time    0.0065
     EDDAV:  cpu time    0.6274: real time    0.6289
       DOS:  cpu time    0.0001: real time    0.0001
    CHARGE:  cpu time    0.0837: real time    0.0839
    MIXING:  cpu time    0.0367: real time    0.0368
    --------------------------------------------
      LOOP:  cpu time    2.1921: real time    2.1973

 eigenvalue-minimisations  :    24
 total energy-change (2. order) :-0.7535507E-02  (-0.3562175E-03)
 number of electron       8.0000004 magnetization 
 augmentation part        0.1823704 magnetization 

 Broyden mixing:
  rms(total) = 0.63861E-02    rms(broyden)= 0.63852E-02
  rms(prec ) = 0.10837E-01
  weight for this iteration     100.00

 eigenvalues of (default mixing * dielectric matrix)
  average eigenvalue GAMMA=   2.1089
  4.3871  2.8445  2.2299  1.2227  0.9846  0.9846

 Free energy of the ion-electron system (eV)
  ---------------------------------------------------
  alpha Z        PSCENC =         0.24311671
  Ewald energy   TEWEN  =       126.50885298
  -Hartree energ DENC   =      -282.63250007
  -exchange      EXHF   =         0.00000000
  -V(xc)+E(xc)   XCENC  =        24.66645533
  PAW double counting   =       457.33380374     -458.11490919
  entropy T*S    EENTRO =        -0.00000000
  eigenvalues    EBANDS =       -88.95784608
  atomic energy  EATOM  =       197.04175453
  Solvation  Ediel_sol  =         0.00000000
  ---------------------------------------------------
  free energy    TOTEN  =       -23.91127205 eV

  energy without entropy =      -23.91127205  energy(sigma->0) =      -23.91127205


--------------------------------------------------------------------------------------------------------




--------------------------------------- Iteration      1(  12)  ---------------------------------------


    POTLOK:  cpu time    1.4104: real time    1.4138
    SETDIJ:  cpu time    0.0066: real time    0.0066
     EDDAV:  cpu time    0.4530: real time    0.4541
       DOS:  cpu time    0.0001: real time    0.0001
    CHARGE:  cpu time    0.0839: real time    0.0841
    MIXING:  cpu time    0.0370: real time    0.0370
    --------------------------------------------
      LOOP:  cpu time    1.9910: real time    1.9957

 eigenvalue-minimisations  :    16
 total energy-change (2. order) :-0.3261900E-02  (-0.6697825E-04)
 number of electron       8.0000004 magnetization 
 augmentation part        0.1825498 magnetization 

 Broyden mixing:
  rms(total) = 0.23027E-02    rms(broyden)= 0.23026E-02
  rms(prec ) = 0.50920E-02
  weight for this iteration     100.00

 eigenvalues of (default mixing * dielectric matrix)
  average eigenvalue GAMMA=   2.2669
  4.9562  3.1051  2.6245  1.9305  1.2249  1.0136  1.0136

 Free energy of the ion-electron system (eV)
  ---------------------------------------------------
  alpha Z        PSCENC =         0.24311671
  Ewald energy   TEWEN  =       126.50885298
  -Hartree energ DENC   =      -282.39643574
  -exchange      EXHF   =         0.00000000
  -V(xc)+E(xc)   XCENC  =        24.63972105
  PAW double counting   =       453.49886671     -454.27929596
  entropy T*S    EENTRO =        -0.00000000
  eigenvalues    EBANDS =       -89.17111422
  atomic energy  EATOM  =       197.04175453
  Solvation  Ediel_sol  =         0.00000000
  ---------------------------------------------------
  free energy    TOTEN  =       -23.91453395 eV

  energy without entropy =      -23.91453395  energy(sigma->0) =      -23.91453395


--------------------------------------------------------------------------------------------------------




--------------------------------------- Iteration      1(  13)  ---------------------------------------


    POTLOK:  cpu time    1.3569: real time    1.3601
    SETDIJ:  cpu time    0.0065: real time    0.0065
     EDDAV:  cpu time    0.8348: real time    0.8368
       DOS:  cpu time    0.0001: real time    0.0001
    CHARGE:  cpu time    0.0870: real time    0.0872
    MIXING:  cpu time    0.0379: real time    0.0380
    --------------------------------------------
      LOOP:  cpu time    2.3232: real time    2.3287

 eigenvalue-minimisations  :    32
 total energy-change (2. order) :-0.3972848E-02  (-0.9126025E-04)
 number of electron       8.0000004 magnetization 
 augmentation part        0.1825735 magnetization 

 Broyden mixing:
  rms(total) = 0.29600E-02    rms(broyden)= 0.29595E-02
  rms(prec ) = 0.38719E-02
  weight for this iteration     100.00

 eigenvalues of (default mixing * dielectric matrix)
  average eigenvalue GAMMA=   2.2878
  5.8445  3.5154  2.4914  2.2040  1.2718  1.0274  1.0274  0.9204

 Free energy of the ion-electron system (eV)
  ---------------------------------------------------
  alpha Z        PSCENC =         0.24311671
  Ewald energy   TEWEN  =       126.50885298
  -Hartree energ DENC   =      -282.46226293
  -exchange      EXHF   =         0.00000000
  -V(xc)+E(xc)   XCENC  =        24.63962924
  PAW double counting   =       455.48689763     -456.26641913
  entropy T*S    EENTRO =        -0.00000000
  eigenvalues    EBANDS =       -89.11007584
  atomic energy  EATOM  =       197.04175453
  Solvation  Ediel_sol  =         0.00000000
  ---------------------------------------------------
  free energy    TOTEN  =       -23.91850680 eV

  energy without entropy =      -23.91850680  energy(sigma->0) =      -23.91850680


--------------------------------------------------------------------------------------------------------




--------------------------------------- Iteration      1(  14)  ---------------------------------------


    POTLOK:  cpu time    1.3434: real time    1.3466
    SETDIJ:  cpu time    0.0065: real time    0.0065
     EDDAV:  cpu time    0.8304: real time    0.8324
       DOS:  cpu time    0.0001: real time    0.0001
    CHARGE:  cpu time    0.0806: real time    0.0808
    MIXING:  cpu time    0.0387: real time    0.0388
    --------------------------------------------
      LOOP:  cpu time    2.2998: real time    2.3052

 eigenvalue-minimisations  :    32
 total energy-change (2. order) :-0.7133689E-03  (-0.1197586E-04)
 number of electron       8.0000004 magnetization 
 augmentation part        0.1825279 magnetization 

 Broyden mixing:
  rms(total) = 0.89129E-03    rms(broyden)= 0.89080E-03
  rms(prec ) = 0.16076E-02
  weight for this iteration     100.00

 eigenvalues of (default mixing * dielectric matrix)
  average eigenvalue GAMMA=   2.5572
  7.0635  4.4959  2.7730  2.3955  1.9844  1.2775  1.0124  1.0124  1.0002

 Free energy of the ion-electron system (eV)
  ---------------------------------------------------
  alpha Z        PSCENC =         0.24311671
  Ewald energy   TEWEN  =       126.50885298
  -Hartree energ DENC   =      -282.43001836
  -exchange      EXHF   =         0.00000000
  -V(xc)+E(xc)   XCENC  =        24.63381315
  PAW double counting   =       454.33710947     -455.11719731
  entropy T*S    EENTRO =        -0.00000000
  eigenvalues    EBANDS =       -89.13665134
  atomic energy  EATOM  =       197.04175453
  Solvation  Ediel_sol  =         0.00000000
  ---------------------------------------------------
  free energy    TOTEN  =       -23.91922016 eV

  energy without entropy =      -23.91922016  energy(sigma->0) =      -23.91922016


--------------------------------------------------------------------------------------------------------




--------------------------------------- Iteration      1(  15)  ---------------------------------------


    POTLOK:  cpu time    1.3541: real time    1.3574
    SETDIJ:  cpu time    0.0065: real time    0.0065
     EDDAV:  cpu time    0.4607: real time    0.4618
       DOS:  cpu time    0.0001: real time    0.0001
    CHARGE:  cpu time    0.0830: real time    0.0832
    MIXING:  cpu time    0.0383: real time    0.0384
    --------------------------------------------
      LOOP:  cpu time    1.9429: real time    1.9475

 eigenvalue-minimisations  :    16
 total energy-change (2. order) :-0.5367627E-03  (-0.7491177E-05)
 number of electron       8.0000004 magnetization 
 augmentation part        0.1825558 magnetization 

 Broyden mixing:
  rms(total) = 0.44197E-03    rms(broyden)= 0.44191E-03
  rms(prec ) = 0.74039E-03
  weight for this iteration     100.00

 eigenvalues of (default mixing * dielectric matrix)
  average eigenvalue GAMMA=   2.4880
  7.3230  4.5551  2.9171  2.4502  2.0726  1.2735  1.2735  1.0094  1.0094  0.9960

 Free energy of the ion-electron system (eV)
  ---------------------------------------------------
  alpha Z        PSCENC =         0.24311671
  Ewald energy   TEWEN  =       126.50885298
  -Hartree energ DENC   =      -282.40410184
  -exchange      EXHF   =         0.00000000
  -V(xc)+E(xc)   XCENC  =        24.63199523
  PAW double counting   =       454.12675452     -454.90669225
  entropy T*S    EENTRO =        -0.00000000
  eigenvalues    EBANDS =       -89.16143681
  atomic energy  EATOM  =       197.04175453
  Solvation  Ediel_sol  =         0.00000000
  ---------------------------------------------------
  free energy    TOTEN  =       -23.91975693 eV

  energy without entropy =      -23.91975693  energy(sigma->0) =      -23.91975693


--------------------------------------------------------------------------------------------------------




--------------------------------------- Iteration      1(  16)  ---------------------------------------


    POTLOK:  cpu time    1.3740: real time    1.3773
    SETDIJ:  cpu time    0.0064: real time    0.0064
     EDDAV:  cpu time    0.8070: real time    0.8089
       DOS:  cpu time    0.0001: real time    0.0001
    CHARGE:  cpu time    0.0836: real time    0.0838
    MIXING:  cpu time    0.0421: real time    0.0422
    --------------------------------------------
      LOOP:  cpu time    2.3133: real time    2.3188

 eigenvalue-minimisations  :    32
 total energy-change (2. order) :-0.7262504E-04  (-0.6793259E-06)
 number of electron       8.0000004 magnetization 
 augmentation part        0.1825389 magnetization 

 Broyden mixing:
  rms(total) = 0.21475E-03    rms(broyden)= 0.21474E-03
  rms(prec ) = 0.32165E-03
  weight for this iteration     100.00

 eigenvalues of (default mixing * dielectric matrix)
  average eigenvalue GAMMA=   2.6289
  8.0264  4.6952  3.7952  2.7248  2.3910  1.9708  1.2685  1.0916  0.9952  0.9795
  0.9795

 Free energy of the ion-electron system (eV)
  ---------------------------------------------------
  alpha Z        PSCENC =         0.24311671
  Ewald energy   TEWEN  =       126.50885298
  -Hartree energ DENC   =      -282.43059798
  -exchange      EXHF   =         0.00000000
  -V(xc)+E(xc)   XCENC  =        24.63345346
  PAW double counting   =       454.19198844     -454.97203729
  entropy T*S    EENTRO =        -0.00000000
  eigenvalues    EBANDS =       -89.13636040
  atomic energy  EATOM  =       197.04175453
  Solvation  Ediel_sol  =         0.00000000
  ---------------------------------------------------
  free energy    TOTEN  =       -23.91982955 eV

  energy without entropy =      -23.91982955  energy(sigma->0) =      -23.91982955


--------------------------------------------------------------------------------------------------------




--------------------------------------- Iteration      1(  17)  ---------------------------------------


    POTLOK:  cpu time    1.4698: real time    1.4734
    SETDIJ:  cpu time    0.0065: real time    0.0065
     EDDAV:  cpu time    0.4405: real time    0.4415
       DOS:  cpu time    0.0001: real time    0.0001
    CHARGE:  cpu time    0.0831: real time    0.0833
    MIXING:  cpu time    0.0402: real time    0.0403
    --------------------------------------------
      LOOP:  cpu time    2.0402: real time    2.0452

 eigenvalue-minimisations  :    16
 total energy-change (2. order) :-0.4602108E-04  (-0.2472080E-06)
 number of electron       8.0000004 magnetization 
 augmentation part        0.1825352 magnetization 

 Broyden mixing:
  rms(total) = 0.13040E-03    rms(broyden)= 0.13040E-03
  rms(prec ) = 0.20327E-03
  weight for this iteration     100.00

 eigenvalues of (default mixing * dielectric matrix)
  average eigenvalue GAMMA=   2.5640
  8.3987  5.1747  3.7684  2.6846  2.3455  1.9522  1.2804  1.1497  0.9912  0.9912
  1.0157  1.0157

 Free energy of the ion-electron system (eV)
  ---------------------------------------------------
  alpha Z        PSCENC =         0.24311671
  Ewald energy   TEWEN  =       126.50885298
  -Hartree energ DENC   =      -282.44225174
  -exchange      EXHF   =         0.00000000
  -V(xc)+E(xc)   XCENC  =        24.63411318
  PAW double counting   =       454.28468208     -455.06475166
  entropy T*S    EENTRO =        -0.00000000
  eigenvalues    EBANDS =       -89.12539165
  atomic energy  EATOM  =       197.04175453
  Solvation  Ediel_sol  =         0.00000000
  ---------------------------------------------------
  free energy    TOTEN  =       -23.91987557 eV

  energy without entropy =      -23.91987557  energy(sigma->0) =      -23.91987557


--------------------------------------------------------------------------------------------------------




--------------------------------------- Iteration      1(  18)  ---------------------------------------


    POTLOK:  cpu time    1.4626: real time    1.4660
    SETDIJ:  cpu time    0.0065: real time    0.0065
     EDDAV:  cpu time    0.8091: real time    0.8111
       DOS:  cpu time    0.0001: real time    0.0001
    CHARGE:  cpu time    0.0843: real time    0.0845
    MIXING:  cpu time    0.0433: real time    0.0434
    --------------------------------------------
      LOOP:  cpu time    2.4059: real time    2.4116

 eigenvalue-minimisations  :    32
 total energy-change (2. order) :-0.2544431E-05  (-0.3968770E-07)
 number of electron       8.0000004 magnetization 
 augmentation part        0.1825407 magnetization 

 Broyden mixing:
  rms(total) = 0.47624E-04    rms(broyden)= 0.47597E-04
  rms(prec ) = 0.81240E-04
  weight for this iteration     100.00

 eigenvalues of (default mixing * dielectric matrix)
  average eigenvalue GAMMA=   2.6290
  8.5457  5.3477  3.9409  2.7662  2.7662  2.3630  2.0046  1.2337  1.2337  1.0017
  1.0017  0.9858  0.9858

 Free energy of the ion-electron system (eV)
  ---------------------------------------------------
  alpha Z        PSCENC =         0.24311671
  Ewald energy   TEWEN  =       126.50885298
  -Hartree energ DENC   =      -282.43658530
  -exchange      EXHF   =         0.00000000
  -V(xc)+E(xc)   XCENC  =        24.63379191
  PAW double counting   =       454.27104210     -455.05107547
  entropy T*S    EENTRO =        -0.00000000
  eigenvalues    EBANDS =       -89.13077558
  atomic energy  EATOM  =       197.04175453
  Solvation  Ediel_sol  =         0.00000000
  ---------------------------------------------------
  free energy    TOTEN  =       -23.91987812 eV

  energy without entropy =      -23.91987812  energy(sigma->0) =      -23.91987812


--------------------------------------------------------------------------------------------------------




--------------------------------------- Iteration      1(  19)  ---------------------------------------


    POTLOK:  cpu time    1.4914: real time    1.4949
    SETDIJ:  cpu time    0.0065: real time    0.0065
     EDDAV:  cpu time    0.4484: real time    0.4495
       DOS:  cpu time    0.0001: real time    0.0001
    CHARGE:  cpu time    0.0862: real time    0.0864
    MIXING:  cpu time    0.0439: real time    0.0440
    --------------------------------------------
      LOOP:  cpu time    2.0764: real time    2.0814

 eigenvalue-minimisations  :    16
 total energy-change (2. order) :-0.4447677E-05  (-0.2093594E-07)
 number of electron       8.0000004 magnetization 
 augmentation part        0.1825413 magnetization 

 Broyden mixing:
  rms(total) = 0.26707E-04    rms(broyden)= 0.26703E-04
  rms(prec ) = 0.40106E-04
  weight for this iteration     100.00

 eigenvalues of (default mixing * dielectric matrix)
  average eigenvalue GAMMA=   2.5286
  8.5915  5.3917  4.0694  3.0237  2.5867  2.2708  1.8038  1.3680  1.2032  1.0084
  1.0084  0.9666  1.0374  1.0713

 Free energy of the ion-electron system (eV)
  ---------------------------------------------------
  alpha Z        PSCENC =         0.24311671
  Ewald energy   TEWEN  =       126.50885298
  -Hartree energ DENC   =      -282.43474265
  -exchange      EXHF   =         0.00000000
  -V(xc)+E(xc)   XCENC  =        24.63360926
  PAW double counting   =       454.26434394     -455.04437137
  entropy T*S    EENTRO =        -0.00000000
  eigenvalues    EBANDS =       -89.13244597
  atomic energy  EATOM  =       197.04175453
  Solvation  Ediel_sol  =         0.00000000
  ---------------------------------------------------
  free energy    TOTEN  =       -23.91988257 eV

  energy without entropy =      -23.91988257  energy(sigma->0) =      -23.91988257


--------------------------------------------------------------------------------------------------------




--------------------------------------- Iteration      1(  20)  ---------------------------------------


    POTLOK:  cpu time    1.5017: real time    1.5053
    SETDIJ:  cpu time    0.0065: real time    0.0065
     EDDAV:  cpu time    0.8122: real time    0.8141
       DOS:  cpu time    0.0001: real time    0.0001
    --------------------------------------------
      LOOP:  cpu time    2.3204: real time    2.3260

 eigenvalue-minimisations  :    32
 total energy-change (2. order) :-0.4358480E-06  (-0.1279194E-08)
 number of electron       8.0000004 magnetization 
 augmentation part        0.1825413 magnetization 

 Free energy of the ion-electron system (eV)
  ---------------------------------------------------
  alpha Z        PSCENC =         0.24311671
  Ewald energy   TEWEN  =       126.50885298
  -Hartree energ DENC   =      -282.43461424
  -exchange      EXHF   =         0.00000000
  -V(xc)+E(xc)   XCENC  =        24.63361897
  PAW double counting   =       454.26982689     -455.04985120
  entropy T*S    EENTRO =        -0.00000000
  eigenvalues    EBANDS =       -89.13258763
  atomic energy  EATOM  =       197.04175453
  Solvation  Ediel_sol  =         0.00000000
  ---------------------------------------------------
  free energy    TOTEN  =       -23.91988300 eV

  energy without entropy =      -23.91988300  energy(sigma->0) =      -23.91988300


--------------------------------------------------------------------------------------------------------




 average (electrostatic) potential at core
  the test charge radii are     0.5201  0.6991
  (the norm of the test charge is              1.0000)
       1 -41.0856       2 -41.5616       3 -41.7313       4 -41.4590       5 -58.0330



 E-fermi :  -8.4113     XC(G=0):  -0.7047     alpha+bet : -0.2114


 k-point     1 :       0.0000    0.0000    0.0000
  band No.  band energies     occupation 
      1     -16.8301      2.00000
      2      -9.5928      2.00000
      3      -9.4593      2.00000
      4      -8.6841      2.00000
      5      -0.5455      0.00000
      6       0.9756      0.00000
      7       0.9795      0.00000
      8       1.0482      0.00000


--------------------------------------------------------------------------------------------------------


 soft charge-density along one line, spin component           1
         0         1         2         3         4         5         6         7         8         9
 total charge-density along one line

 pseudopotential strength for first ion, spin component:           1
 -2.337  -4.026  -0.001   0.000  -0.001
 -4.026  -6.850  -0.003   0.001  -0.003
 -0.001  -0.003  -0.339  -0.001   0.002
  0.000   0.001  -0.001  -0.341  -0.001
 -0.001  -0.003   0.002  -0.001  -0.340
 total augmentation occupancy for first ion, spin component:           1
  3.355  -0.606   0.279  -0.087   0.231
 -0.606   0.124  -0.053   0.016  -0.042
  0.279  -0.053   0.027  -0.006   0.016
 -0.087   0.016  -0.006   0.009  -0.005
  0.231  -0.042   0.016  -0.005   0.020


------------------------ aborting loop because EDIFF is reached ----------------------------------------


    CHARGE:  cpu time    0.0813: real time    0.0815
    FORLOC:  cpu time    0.1077: real time    0.1080
    FORNL :  cpu time    0.1525: real time    0.1528
    STRESS:  cpu time    0.5693: real time    0.5707
    FORCOR:  cpu time    1.5832: real time    1.5869
    FORHAR:  cpu time    0.5170: real time    0.5182
    MIXING:  cpu time    0.0460: real time    0.0461
    OFIELD:  cpu time    0.0000: real time    0.0000

  FORCE on cell =-STRESS in cart. coord.  units (eV):
  Direction    XX          YY          ZZ          XY          YZ          ZX
  --------------------------------------------------------------------------------------
  Alpha Z     0.24312     0.24312     0.24312
  Ewald      46.10434    35.08177    45.32272    -3.65326     2.99463    -0.08354
  Hartree    95.34936    94.77750    92.30869    -0.67963     0.41938    -0.25603
  E(xc)     -27.06736   -27.13899   -27.07132    -0.00660     0.00310    -0.00319
  Local    -199.77888  -190.77848  -194.98874     3.39477    -2.52490     0.45557
  n-local   -15.59716   -15.65585   -15.69031     0.00650    -0.04021    -0.02641
  augment     0.11755     0.13473     0.10768     0.00732    -0.00772    -0.00129
  Kinetic    99.15815   102.89305    99.38667     0.53759    -0.27327     0.19142
  Fock        0.00000     0.00000     0.00000     0.00000     0.00000     0.00000
  -------------------------------------------------------------------------------------
  Total      -1.47088    -0.44316    -0.38149    -0.39331     0.57101     0.27654
  in kB      -2.36503    -0.71256    -0.61340    -0.63241     0.91814     0.44465
  external pressure =       -1.23 kB  Pullay stress =        0.00 kB


 VOLUME and BASIS-vectors are now :
 -----------------------------------------------------------------------------
  energy-cutoff  :      400.00
  volume of cell :      996.44
      direct lattice vectors                 reciprocal lattice vectors
    10.006619500  0.000000000  0.000000000     0.099933849  0.002269562  0.000748798
    -0.221244500  9.741885200  0.000000000     0.000000000  0.102649536 -0.002424515
    -0.082073000  0.241428100 10.221626300     0.000000000 -0.000000000  0.097831790

  length of vectors
    10.006619500  9.744397179 10.224806488     0.099962422  0.102678165  0.097831790


 FORCES acting on ions
    electron-ion (+dipol)            ewald-force                    non-local-force                 convergence-correction
 -----------------------------------------------------------------------------------------------
   0.309E+02 0.383E+02 -.118E+02   -.328E+02 -.413E+02 0.125E+02   0.298E+01 0.354E+01 -.112E+01   -.438E-04 -.486E-04 0.231E-04
   -.446E+02 0.177E+02 0.213E+02   0.491E+02 -.196E+02 -.234E+02   -.464E+01 0.192E+01 0.224E+01   0.590E-04 -.172E-04 -.327E-04
   -.762E+01 -.252E+02 -.467E+02   0.866E+01 0.286E+02 0.522E+02   -.710E+00 -.263E+01 -.517E+01   0.115E-04 0.285E-04 0.741E-04
   0.282E+02 -.270E+02 0.348E+02   -.307E+02 0.300E+02 -.381E+02   0.302E+01 -.264E+01 0.356E+01   -.353E-04 0.323E-04 -.564E-04
   -.575E+01 -.251E+01 0.280E+01   0.577E+01 0.231E+01 -.322E+01   -.173E+01 -.147E+01 0.645E-01   -.980E-05 -.462E-05 0.878E-05
 -----------------------------------------------------------------------------------------------
   0.107E+01 0.128E+01 0.420E+00   0.000E+00 -.355E-14 -.711E-14   -.107E+01 -.128E+01 -.420E+00   -.185E-04 -.965E-05 0.168E-04


 POSITION                                       TOTAL-FORCE (eV/Angst)
 -----------------------------------------------------------------------------------
      4.20013      3.81610      4.80469         1.030024      0.605143     -0.363126
      5.83408      4.30067      4.09370        -0.138333      0.098162      0.129548
      5.04596      5.18275      5.48035         0.323692      0.697524      0.348093
      4.29716      5.24654      3.80684         0.492831      0.268144      0.242416
      4.90437      4.68213      4.53913        -1.708214     -1.668972     -0.356930
 -----------------------------------------------------------------------------------
    total drift:                               -0.000101      0.000129      0.000078


--------------------------------------------------------------------------------------------------------



  FREE ENERGIE OF THE ION-ELECTRON SYSTEM (eV)
  ---------------------------------------------------
  free  energy   TOTEN  =       -23.91988300 eV

  energy  without entropy=      -23.91988300  energy(sigma->0) =      -23.91988300



--------------------------------------------------------------------------------------------------------


    POTLOK:  cpu time    1.5299: real time    1.5335


--------------------------------------------------------------------------------------------------------


     LOOP+:  cpu time   42.9375: real time   43.0438
    4ORBIT:  cpu time    0.0000: real time    0.0000

 total amount of memory used by VASP MPI-rank0   274694. kBytes
=======================================================================

   base      :      30000. kBytes
   nonlr-proj:       1234. kBytes
   fftplans  :      86584. kBytes
   grid      :     154542. kBytes
   one-center:         15. kBytes
   wavefun   :       2319. kBytes

  
  
 General timing and accounting informations for this job:
 ========================================================
  
                  Total CPU time used (sec):       44.532
                            User time (sec):       43.148
                          System time (sec):        1.384
                         Elapsed time (sec):       44.652
  
                   Maximum memory used (kb):      388832.
                   Average memory used (kb):           0.
  
                          Minor page faults:       202836
                          Major page faults:            0
                 Voluntary context switches:          147
