 vasp.5.4.4.18Apr17-6-g9f103f2a35 (build Jul 12 2018 13:43:46) complex           
 executed on             LinuxGNU date 2019.06.25  21:09:19
 running on    1 total cores
 distrk:  each k-point on    1 cores,    1 groups
 distr:  one band on NCORES_PER_BAND=   1 cores,    1 groups


--------------------------------------------------------------------------------------------------------


 INCAR:
 POTCAR:    PAW_PBE H 15Jun2001                   
 POTCAR:    PAW_PBE C 08Apr2002                   
 POTCAR:    PAW_PBE H 15Jun2001                   
   VRHFIN =H: ultrasoft test                                                    
   LEXCH  = PE                                                                  
   EATOM  =    12.4884 eV,    0.9179 Ry                                         
                                                                                
   TITEL  = PAW_PBE H 15Jun2001                                                 
   LULTRA =        F    use ultrasoft PP ?                                      
   IUNSCR =        0    unscreen: 0-lin 1-nonlin 2-no                           
   RPACOR =    0.000    partial core radius                                     
   POMASS =    1.000; ZVAL   =    1.000    mass and valenz                      
   RCORE  =    1.100    outmost cutoff radius                                   
   RWIGS  =    0.700; RWIGS  =    0.370    wigner-seitz radius (au A)           
   ENMAX  =  250.000; ENMIN  =  200.000 eV                                      
   RCLOC  =    0.701    cutoff for local pot                                    
   LCOR   =        T    correct aug charges                                     
   LPAW   =        T    paw PP                                                  
   EAUG   =  400.000                                                            
   RMAX   =    1.123    core radius for proj-oper                               
   RAUG   =    1.200    factor for augmentation sphere                          
   RDEP   =    1.112    radius for radial grids                                 
   RDEPT  =    0.926    core radius for aug-charge                              
                                                                                
   Atomic configuration                                                         
    2 entries                                                                   
     n  l   j            E        occ.                                          
     1  0  0.50        -6.4927   1.0000                                         
     2  1  0.50        -3.4015   0.0000                                         
   Description                                                                  
     l       E           TYP  RCUT    TYP  RCUT                                 
     0     -6.4927494     23  1.100                                             
     0      6.8029130     23  1.100                                             
     1     -4.0817478     23  1.100                                             
  local pseudopotential read in
  atomic valenz-charges read in
  non local Contribution for L=           0  read in
    real space projection operators read in
  non local Contribution for L=           0  read in
    real space projection operators read in
  non local Contribution for L=           1  read in
    real space projection operators read in
    PAW grid and wavefunctions read in

   number of l-projection  operators is LMAX  =           3
   number of lm-projection operators is LMMAX =           5

 POTCAR:    PAW_PBE C 08Apr2002                   
   VRHFIN =C: s2p2                                                              
   LEXCH  = PE                                                                  
   EATOM  =   147.1560 eV,   10.8157 Ry                                         
                                                                                
   TITEL  = PAW_PBE C 08Apr2002                                                 
   LULTRA =        F    use ultrasoft PP ?                                      
   IUNSCR =        1    unscreen: 0-lin 1-nonlin 2-no                           
   RPACOR =    1.200    partial core radius                                     
   POMASS =   12.011; ZVAL   =    4.000    mass and valenz                      
   RCORE  =    1.500    outmost cutoff radius                                   
   RWIGS  =    1.630; RWIGS  =    0.863    wigner-seitz radius (au A)           
   ENMAX  =  400.000; ENMIN  =  300.000 eV                                      
   ICORE  =        2    local potential                                         
   LCOR   =        T    correct aug charges                                     
   LPAW   =        T    paw PP                                                  
   EAUG   =  644.873                                                            
   DEXC   =    0.000                                                            
   RMAX   =    1.529    core radius for proj-oper                               
   RAUG   =    1.300    factor for augmentation sphere                          
   RDEP   =    1.501    radius for radial grids                                 
   RDEPT  =    1.300    core radius for aug-charge                              
                                                                                
   Atomic configuration                                                         
    4 entries                                                                   
     n  l   j            E        occ.                                          
     1  0  0.50      -273.3789   2.0000                                         
     2  0  0.50       -13.7508   2.0000                                         
     2  1  0.50        -5.2854   2.0000                                         
     3  2  1.50        -5.4423   0.0000                                         
   Description                                                                  
     l       E           TYP  RCUT    TYP  RCUT                                 
     0    -13.7508458     23  1.200                                             
     0     -8.2022199     23  1.200                                             
     1     -5.2854383     23  1.500                                             
     1     34.0145650     23  1.500                                             
     2     -5.4423304      7  1.500                                             
  local pseudopotential read in
  partial core-charges read in
  partial kinetic energy density read in
  atomic valenz-charges read in
  non local Contribution for L=           0  read in
    real space projection operators read in
  non local Contribution for L=           0  read in
    real space projection operators read in
  non local Contribution for L=           1  read in
    real space projection operators read in
  non local Contribution for L=           1  read in
    real space projection operators read in
    PAW grid and wavefunctions read in

   number of l-projection  operators is LMAX  =           4
   number of lm-projection operators is LMMAX =           8


 ----------------------------------------------------------------------------- 
|                                                                             |
|  ADVICE TO THIS USER RUNNING 'VASP/VAMP'   (HEAR YOUR MASTER'S VOICE ...):  |
|                                                                             |
|      You have a (more or less) 'small supercell' and for smaller cells      |
|      it is recommended  to use the reciprocal-space projection scheme!      |
|      The real space optimization is not  efficient for small cells and it   |
|      is also less accurate ...                                              |
|      Therefore set LREAL=.FALSE. in the  INCAR file                         |
|                                                                             |
 ----------------------------------------------------------------------------- 

 Optimization of the real space projectors (new method)

 maximal supplied QI-value         = 34.20
 optimisation between [QCUT,QGAM] = [  9.92, 20.18] = [ 27.55,114.04] Ry 
 Optimized for a Real-space Cutoff    1.34 Angstroem

   l    n(q)    QCUT    max X(q) W(low)/X(q) W(high)/X(q)  e(spline) 
   0      8     9.919    19.460    0.16E-03    0.20E-03    0.36E-06
   0      8     9.919    12.209    0.16E-03    0.20E-03    0.35E-06
   1      8     9.919     4.655    0.19E-03    0.46E-03    0.40E-06
 Optimization of the real space projectors (new method)

 maximal supplied QI-value         = 25.13
 optimisation between [QCUT,QGAM] = [ 10.05, 20.36] = [ 28.30,116.06] Ry 
 Optimized for a Real-space Cutoff    1.51 Angstroem

   l    n(q)    QCUT    max X(q) W(low)/X(q) W(high)/X(q)  e(spline) 
   0      9    10.053   115.676    0.19E-03    0.21E-03    0.38E-06
   0      9    10.053    87.132    0.19E-03    0.21E-03    0.38E-06
   1      9    10.053     4.429    0.87E-04    0.11E-03    0.39E-06
   1      9    10.053     2.733    0.59E-04    0.62E-04    0.43E-06
  PAW_PBE H 15Jun2001                   :
 energy of atom  1       EATOM=  -12.4884
 kinetic energy error for atom=    0.0098 (will be added to EATOM!!)
  PAW_PBE C 08Apr2002                   :
 energy of atom  2       EATOM= -147.1560
 kinetic energy error for atom=    0.0288 (will be added to EATOM!!)


 POSCAR: POSCAR file written by OVITO            
  positions in cartesian coordinates
  No initial velocities read in
 exchange correlation table for  LEXCH =        8
   RHO(1)=    0.500       N(1)  =     2000
   RHO(2)=  100.500       N(2)  =     4000



--------------------------------------------------------------------------------------------------------


 ion  position               nearest neighbor table
   1  0.425  0.429  0.381-   5 1.06
   2  0.515  0.404  0.530-   5 1.08
   3  0.481  0.574  0.483-   5 1.14
   4  0.598  0.476  0.393-   5 1.10
   5  0.502  0.468  0.443-   1 1.06   2 1.08   4 1.10   3 1.14


IMPORTANT INFORMATION: All symmetrisations will be switched off!
NOSYMM: (Re-)initialisation of all symmetry stuff for point group C_1.




Automatic generation of k-mesh.
 generate k-points for:    1    1    1
Space group operators:
 irot       det(A)        alpha          n_x          n_y          n_z        tau_x        tau_y        tau_z
    1     1.000000     0.000000     1.000000     0.000000     0.000000     0.000000     0.000000     0.000000
 
 Subroutine IBZKPT returns following result:
 ===========================================
 
 Found      1 irreducible k-points:
 
 Following reciprocal coordinates:
            Coordinates               Weight
  0.000000  0.000000  0.000000      1.000000
 
 Following cartesian coordinates:
            Coordinates               Weight
  0.000000  0.000000  0.000000      1.000000
 


--------------------------------------------------------------------------------------------------------




 Dimension of arrays:
   k-points           NKPTS =      1   k-points in BZ     NKDIM =      1   number of bands    NBANDS=      8
   number of dos      NEDOS =    301   number of ions     NIONS =      5
   non local maximal  LDIM  =      4   non local SUM 2l+1 LMDIM =      8
   total plane-waves  NPLWV = 313600
   max r-space proj   IRMAX =   4575   max aug-charges    IRDMAX=   3913
   dimension x,y,z NGX =    70 NGY =   64 NGZ =   70
   dimension x,y,z NGXF=   140 NGYF=  128 NGZF=  140
   support grid    NGXF=   140 NGYF=  128 NGZF=  140
   ions per type =               4   1
   NGX,Y,Z   is equivalent  to a cutoff of  11.63, 10.92, 11.38 a.u.
   NGXF,Y,Z  is equivalent  to a cutoff of  23.26, 21.84, 22.76 a.u.

 SYSTEM =  unknown system                          
 POSCAR =  POSCAR file written by OVITO            

 Startparameter for this run:
   NWRITE =      2    write-flag & timer
   PREC   = a         normal or accurate (medium, high low for compatibility)
   ISTART =      0    job   : 0-new  1-cont  2-samecut
   ICHARG =      2    charge: 1-file 2-atom 10-const
   ISPIN  =      1    spin polarized calculation?
   LNONCOLLINEAR =      F non collinear calculations
   LSORBIT =      F    spin-orbit coupling
   INIWAV =      1    electr: 0-lowe 1-rand  2-diag
   LASPH  =      F    aspherical Exc in radial PAW
   METAGGA=      F    non-selfconsistent MetaGGA calc.

 Electronic Relaxation 1
   ENCUT  =  400.0 eV  29.40 Ry    5.42 a.u.  16.32 15.89 16.67*2*pi/ulx,y,z
   ENINI  =  400.0     initial cutoff
   ENAUG  =  644.9 eV  augmentation charge cutoff
   NELM   =    120;   NELMIN=  4; NELMDL= -5     # of ELM steps 
   EDIFF  = 0.1E-05   stopping-criterion for ELM
   LREAL  =      T    real-space projection
   NLSPLINE    = F    spline interpolate recip. space projectors
   LCOMPAT=      F    compatible to vasp.4.4
   GGA_COMPAT  = T    GGA compatible to vasp.4.4-vasp.4.6
   LMAXPAW     = -100 max onsite density
   LMAXMIX     =    2 max onsite mixed and CHGCAR
   VOSKOWN=      0    Vosko Wilk Nusair interpolation
   ROPT   =   -0.00025  -0.00025
 Ionic relaxation
   EDIFFG = 0.1E-04   stopping-criterion for IOM
   NSW    =      0    number of steps for IOM
   NBLOCK =      1;   KBLOCK =      1    inner block; outer block 
   IBRION =     -1    ionic relax: 0-MD 1-quasi-New 2-CG
   NFREE  =      0    steps in history (QN), initial steepest desc. (CG)
   ISIF   =      2    stress and relaxation
   IWAVPR =     10    prediction:  0-non 1-charg 2-wave 3-comb
   ISYM   =      0    0-nonsym 1-usesym 2-fastsym
   LCORR  =      T    Harris-Foulkes like correction to forces

   POTIM  = 0.5000    time-step for ionic-motion
   TEIN   =    0.0    initial temperature
   TEBEG  =    0.0;   TEEND  =   0.0 temperature during run
   SMASS  =  -3.00    Nose mass-parameter (am)
   estimated Nose-frequenzy (Omega)   =  0.10E-29 period in steps =****** mass=  -0.229E-26a.u.
   SCALEE = 1.0000    scale energy and forces
   NPACO  =    256;   APACO  = 16.0  distance and # of slots for P.C.
   PSTRESS=    0.0 pullay stress

  Mass of Ions in am
   POMASS =   1.00 12.01
  Ionic Valenz
   ZVAL   =   1.00  4.00
  Atomic Wigner-Seitz radii
   RWIGS  =  -1.00 -1.00
  virtual crystal weights 
   VCA    =   1.00  1.00
   NELECT =       8.0000    total number of electrons
   NUPDOWN=      -1.0000    fix difference up-down

 DOS related values:
   EMIN   =  10.00;   EMAX   =-10.00  energy-range for DOS
   EFERMI =   0.00
   ISMEAR =     0;   SIGMA  =   0.05  broadening in eV -4-tet -1-fermi 0-gaus

 Electronic relaxation 2 (details)
   IALGO  =     38    algorithm
   LDIAG  =      T    sub-space diagonalisation (order eigenvalues)
   LSUBROT=      F    optimize rotation matrix (better conditioning)
   TURBO    =      0    0=normal 1=particle mesh
   IRESTART =      0    0=no restart 2=restart with 2 vectors
   NREBOOT  =      0    no. of reboots
   NMIN     =      0    reboot dimension
   EREF     =   0.00    reference energy to select bands
   IMIX   =      4    mixing-type and parameters
     AMIX     =   0.40;   BMIX     =  1.00
     AMIX_MAG =   1.60;   BMIX_MAG =  1.00
     AMIN     =   0.10
     WC   =   100.;   INIMIX=   1;  MIXPRE=   1;  MAXMIX= -45

 Intra band minimization:
   WEIMIN = 0.0000     energy-eigenvalue tresh-hold
   EBREAK =  0.31E-07  absolut break condition
   DEPER  =   0.30     relativ break condition  

   TIME   =   0.40     timestep for ELM

  volume/ion in A,a.u.               =     199.29      1344.86
  Fermi-wavevector in a.u.,A,eV,Ry     =   0.327809  0.619470  1.462068  0.107459
  Thomas-Fermi vector in A             =   1.220856

 Write flags
   LWAVE        =      F    write WAVECAR
   LDOWNSAMPLE  =      F    k-point downsampling of WAVECAR
   LCHARG       =      F    write CHGCAR
   LVTOT        =      F    write LOCPOT, total local potential
   LVHAR        =      F    write LOCPOT, Hartree potential only
   LELF         =      F    write electronic localiz. function (ELF)
   LORBIT       =      0    0 simple, 1 ext, 2 COOP (PROOUT), +10 PAW based schemes


 Dipole corrections
   LMONO  =      F    monopole corrections only (constant potential shift)
   LDIPOL =      F    correct potential (dipole corrections)
   IDIPOL =      0    1-x, 2-y, 3-z, 4-all directions 
   EPSILON=  1.0000000 bulk dielectric constant

 Exchange correlation treatment:
   GGA     =    --    GGA type
   LEXCH   =     8    internal setting for exchange type
   VOSKOWN=      0    Vosko Wilk Nusair interpolation
   LHFCALC =     F    Hartree Fock is set to
   LHFONE  =     F    Hartree Fock one center treatment
   AEXX    =    0.0000 exact exchange contribution

 Linear response parameters
   LEPSILON=     F    determine dielectric tensor
   LRPA    =     F    only Hartree local field effects (RPA)
   LNABLA  =     F    use nabla operator in PAW spheres
   LVEL    =     F    velocity operator in full k-point grid
   LINTERFAST=   F  fast interpolation
   KINTER  =     0    interpolate to denser k-point grid
   CSHIFT  =0.1000    complex shift for real part using Kramers Kronig
   OMEGAMAX=  -1.0    maximum frequency
   DEG_THRESHOLD= 0.2000000E-02 threshold for treating states as degnerate
   RTIME   =   -0.100 relaxation time in fs
  (WPLASMAI=    0.000 imaginary part of plasma frequency in eV, 0.658/RTIME)
   DFIELD  = 0.0000000 0.0000000 0.0000000 field for delta impulse in time

 Orbital magnetization related:
   ORBITALMAG=     F  switch on orbital magnetization
   LCHIMAG   =     F  perturbation theory with respect to B field
   DQ        =  0.001000  dq finite difference perturbation B field
   LLRAUG    =     F  two centre corrections for induced B field



--------------------------------------------------------------------------------------------------------


 Static calculation
 charge density and potential will be updated during run
 non-spin polarized calculation
 Variant of blocked Davidson
 Davidson routine will perform the subspace rotation
 perform sub-space diagonalisation
    after iterative eigenvector-optimisation
 modified Broyden-mixing scheme, WC =      100.0
 initial mixing is a Kerker type mixing with AMIX =  0.4000 and BMIX =      1.0000
 Hartree-type preconditioning will be used
 using additional bands            4
 real space projection scheme for non local part
 use partial core corrections
 calculate Harris-corrections to forces   (improved forces if not selfconsistent)
 use gradient corrections 
 use of overlap-Matrix (Vanderbilt PP)
 Gauss-broadening in eV      SIGMA  =   0.05


--------------------------------------------------------------------------------------------------------


  energy-cutoff  :      400.00
  volume of cell :      996.44
      direct lattice vectors                 reciprocal lattice vectors
    10.006619500  0.000000000  0.000000000     0.099933849  0.002269562  0.000748798
    -0.221244500  9.741885200  0.000000000     0.000000000  0.102649536 -0.002424515
    -0.082073000  0.241428100 10.221626300     0.000000000 -0.000000000  0.097831790

  length of vectors
    10.006619500  9.744397179 10.224806488     0.099962422  0.102678165  0.097831790



 k-points in units of 2pi/SCALE and weight: read from INCAR                         
   0.00000000  0.00000000  0.00000000       1.000

 k-points in reciprocal lattice and weights: read from INCAR                         
   0.00000000  0.00000000  0.00000000       1.000

 position of ions in fractional coordinates (direct lattice) 
   0.42478443  0.42920835  0.38131997
   0.51545505  0.40404281  0.53001744
   0.48069699  0.57371226  0.48275584
   0.59790867  0.47589621  0.39276137
   0.50191422  0.46767888  0.44342747

 position of ions in cartesian coordinates  (Angst):
   4.12440010  4.27335980  3.89771020
   5.02507020  4.06409980  5.41764020
   4.64360000  5.70558980  4.93454980
   5.84552000  4.73094990  4.01465990
   4.88259980  4.66312980  4.53254990



--------------------------------------------------------------------------------------------------------


 k-point  1 :   0.0000 0.0000 0.0000  plane waves:   18093

 maximum and minimum number of plane-waves per node :     18093    18093

 maximum number of plane-waves:     18093
 maximum index in each direction: 
   IXMAX=   16   IYMAX=   15   IZMAX=   16
   IXMIN=  -16   IYMIN=  -15   IZMIN=  -16


 serial   3D FFT for wavefunctions
 parallel 3D FFT for charge:
    minimum data exchange during FFTs selected (reduces bandwidth)


 total amount of memory used by VASP MPI-rank0   274697. kBytes
=======================================================================

   base      :      30000. kBytes
   nonlr-proj:       1237. kBytes
   fftplans  :      86584. kBytes
   grid      :     154542. kBytes
   one-center:         15. kBytes
   wavefun   :       2319. kBytes

     INWAV:  cpu time    0.0000: real time    0.0000
 Broyden mixing: mesh for mixing (old mesh)
   NGX = 33   NGY = 31   NGZ = 33
  (NGX  =140   NGY  =128   NGZ  =140)
  gives a total of  33759 points

 initial charge density was supplied:
 charge density of overlapping atoms calculated
 number of electron       8.0000000 magnetization 
 keeping initial charge density in first step


--------------------------------------------------------------------------------------------------------


 Maximum index for non-local projection operator         4395
 Maximum index for augmentation-charges         3598 (set IRDMAX)


--------------------------------------------------------------------------------------------------------


 First call to EWALD:  gamma=   0.177
 Maximum number of real-space cells 3x 3x 3
 Maximum number of reciprocal cells 3x 3x 3

    FEWALD:  cpu time    0.0006: real time    0.0006


--------------------------------------- Iteration      1(   1)  ---------------------------------------


    POTLOK:  cpu time    1.3783: real time    1.3819
    SETDIJ:  cpu time    0.0058: real time    0.0058
     EDDAV:  cpu time    0.4176: real time    0.4186
       DOS:  cpu time    0.0001: real time    0.0001
    --------------------------------------------
      LOOP:  cpu time    1.8018: real time    1.8064

 eigenvalue-minimisations  :    16
 total energy-change (2. order) : 0.6332082E+02  (-0.1510027E+03)
 number of electron       8.0000000 magnetization 
 augmentation part        8.0000000 magnetization 

 Free energy of the ion-electron system (eV)
  ---------------------------------------------------
  alpha Z        PSCENC =         0.24311671
  Ewald energy   TEWEN  =       129.32101347
  -Hartree energ DENC   =      -244.20271144
  -exchange      EXHF   =         0.00000000
  -V(xc)+E(xc)   XCENC  =        22.02470518
  PAW double counting   =       117.05815612     -117.66307307
  entropy T*S    EENTRO =        -0.00000000
  eigenvalues    EBANDS =       -40.50214057
  atomic energy  EATOM  =       197.04175453
  Solvation  Ediel_sol  =         0.00000000
  ---------------------------------------------------
  free energy    TOTEN  =        63.32082094 eV

  energy without entropy =       63.32082094  energy(sigma->0) =       63.32082094


--------------------------------------------------------------------------------------------------------




--------------------------------------- Iteration      1(   2)  ---------------------------------------


     EDDAV:  cpu time    0.7097: real time    0.7115
       DOS:  cpu time    0.0001: real time    0.0001
    --------------------------------------------
      LOOP:  cpu time    0.7098: real time    0.7115

 eigenvalue-minimisations  :    32
 total energy-change (2. order) :-0.7647371E+02  (-0.7647371E+02)
 number of electron       8.0000000 magnetization 
 augmentation part        8.0000000 magnetization 

 Free energy of the ion-electron system (eV)
  ---------------------------------------------------
  alpha Z        PSCENC =         0.24311671
  Ewald energy   TEWEN  =       129.32101347
  -Hartree energ DENC   =      -244.20271144
  -exchange      EXHF   =         0.00000000
  -V(xc)+E(xc)   XCENC  =        22.02470518
  PAW double counting   =       117.05815612     -117.66307307
  entropy T*S    EENTRO =        -0.00000000
  eigenvalues    EBANDS =      -116.97584999
  atomic energy  EATOM  =       197.04175453
  Solvation  Ediel_sol  =         0.00000000
  ---------------------------------------------------
  free energy    TOTEN  =       -13.15288848 eV

  energy without entropy =      -13.15288848  energy(sigma->0) =      -13.15288848


--------------------------------------------------------------------------------------------------------




--------------------------------------- Iteration      1(   3)  ---------------------------------------


     EDDAV:  cpu time    0.3991: real time    0.4000
       DOS:  cpu time    0.0001: real time    0.0001
    --------------------------------------------
      LOOP:  cpu time    0.3992: real time    0.4001

 eigenvalue-minimisations  :    16
 total energy-change (2. order) :-0.1365048E+02  (-0.1365048E+02)
 number of electron       8.0000000 magnetization 
 augmentation part        8.0000000 magnetization 

 Free energy of the ion-electron system (eV)
  ---------------------------------------------------
  alpha Z        PSCENC =         0.24311671
  Ewald energy   TEWEN  =       129.32101347
  -Hartree energ DENC   =      -244.20271144
  -exchange      EXHF   =         0.00000000
  -V(xc)+E(xc)   XCENC  =        22.02470518
  PAW double counting   =       117.05815612     -117.66307307
  entropy T*S    EENTRO =        -0.00000000
  eigenvalues    EBANDS =      -130.62632887
  atomic energy  EATOM  =       197.04175453
  Solvation  Ediel_sol  =         0.00000000
  ---------------------------------------------------
  free energy    TOTEN  =       -26.80336736 eV

  energy without entropy =      -26.80336736  energy(sigma->0) =      -26.80336736


--------------------------------------------------------------------------------------------------------




--------------------------------------- Iteration      1(   4)  ---------------------------------------


     EDDAV:  cpu time    0.7213: real time    0.7230
       DOS:  cpu time    0.0001: real time    0.0001
    --------------------------------------------
      LOOP:  cpu time    0.7214: real time    0.7231

 eigenvalue-minimisations  :    32
 total energy-change (2. order) :-0.7218221E+00  (-0.7218221E+00)
 number of electron       8.0000000 magnetization 
 augmentation part        8.0000000 magnetization 

 Free energy of the ion-electron system (eV)
  ---------------------------------------------------
  alpha Z        PSCENC =         0.24311671
  Ewald energy   TEWEN  =       129.32101347
  -Hartree energ DENC   =      -244.20271144
  -exchange      EXHF   =         0.00000000
  -V(xc)+E(xc)   XCENC  =        22.02470518
  PAW double counting   =       117.05815612     -117.66307307
  entropy T*S    EENTRO =        -0.00000000
  eigenvalues    EBANDS =      -131.34815095
  atomic energy  EATOM  =       197.04175453
  Solvation  Ediel_sol  =         0.00000000
  ---------------------------------------------------
  free energy    TOTEN  =       -27.52518944 eV

  energy without entropy =      -27.52518944  energy(sigma->0) =      -27.52518944


--------------------------------------------------------------------------------------------------------




--------------------------------------- Iteration      1(   5)  ---------------------------------------


     EDDAV:  cpu time    0.7172: real time    0.7189
       DOS:  cpu time    0.0001: real time    0.0001
    CHARGE:  cpu time    0.0756: real time    0.0758
    MIXING:  cpu time    0.0315: real time    0.0316
    --------------------------------------------
      LOOP:  cpu time    0.8244: real time    0.8264

 eigenvalue-minimisations  :    32
 total energy-change (2. order) :-0.3235657E-03  (-0.3235659E-03)
 number of electron       7.9999999 magnetization 
 augmentation part        0.2265035 magnetization 

 Broyden mixing:
  rms(total) = 0.87889E+00    rms(broyden)= 0.87868E+00
  rms(prec ) = 0.12386E+01
  weight for this iteration     100.00

 Free energy of the ion-electron system (eV)
  ---------------------------------------------------
  alpha Z        PSCENC =         0.24311671
  Ewald energy   TEWEN  =       129.32101347
  -Hartree energ DENC   =      -244.20271144
  -exchange      EXHF   =         0.00000000
  -V(xc)+E(xc)   XCENC  =        22.02470518
  PAW double counting   =       117.05815612     -117.66307307
  entropy T*S    EENTRO =        -0.00000000
  eigenvalues    EBANDS =      -131.34847452
  atomic energy  EATOM  =       197.04175453
  Solvation  Ediel_sol  =         0.00000000
  ---------------------------------------------------
  free energy    TOTEN  =       -27.52551301 eV

  energy without entropy =      -27.52551301  energy(sigma->0) =      -27.52551301


--------------------------------------------------------------------------------------------------------




--------------------------------------- Iteration      1(   6)  ---------------------------------------


    POTLOK:  cpu time    1.5044: real time    1.5079
    SETDIJ:  cpu time    0.0061: real time    0.0061
     EDDAV:  cpu time    0.5844: real time    0.5858
       DOS:  cpu time    0.0001: real time    0.0001
    CHARGE:  cpu time    0.0805: real time    0.0807
    MIXING:  cpu time    0.0338: real time    0.0339
    --------------------------------------------
      LOOP:  cpu time    2.2093: real time    2.2146

 eigenvalue-minimisations  :    24
 total energy-change (2. order) : 0.2924980E+01  (-0.8944076E+00)
 number of electron       7.9999998 magnetization 
 augmentation part        0.1982162 magnetization 

 Broyden mixing:
  rms(total) = 0.44830E+00    rms(broyden)= 0.44818E+00
  rms(prec ) = 0.56099E+00
  weight for this iteration     100.00

 eigenvalues of (default mixing * dielectric matrix)
  average eigenvalue GAMMA=   1.2012
  1.2012

 Free energy of the ion-electron system (eV)
  ---------------------------------------------------
  alpha Z        PSCENC =         0.24311671
  Ewald energy   TEWEN  =       129.32101347
  -Hartree energ DENC   =      -264.06221505
  -exchange      EXHF   =         0.00000000
  -V(xc)+E(xc)   XCENC  =        23.22969106
  PAW double counting   =       239.70823969     -240.49007831
  entropy T*S    EENTRO =        -0.00000000
  eigenvalues    EBANDS =      -109.59205464
  atomic energy  EATOM  =       197.04175453
  Solvation  Ediel_sol  =         0.00000000
  ---------------------------------------------------
  free energy    TOTEN  =       -24.60053253 eV

  energy without entropy =      -24.60053253  energy(sigma->0) =      -24.60053253


--------------------------------------------------------------------------------------------------------




--------------------------------------- Iteration      1(   7)  ---------------------------------------


    POTLOK:  cpu time    1.5312: real time    1.5348
    SETDIJ:  cpu time    0.0063: real time    0.0063
     EDDAV:  cpu time    0.5822: real time    0.5836
       DOS:  cpu time    0.0001: real time    0.0001
    CHARGE:  cpu time    0.0775: real time    0.0777
    MIXING:  cpu time    0.0338: real time    0.0339
    --------------------------------------------
      LOOP:  cpu time    2.2311: real time    2.2363

 eigenvalue-minimisations  :    24
 total energy-change (2. order) : 0.4867166E+00  (-0.7523650E-01)
 number of electron       7.9999998 magnetization 
 augmentation part        0.1896813 magnetization 

 Broyden mixing:
  rms(total) = 0.22758E+00    rms(broyden)= 0.22754E+00
  rms(prec ) = 0.27928E+00
  weight for this iteration     100.00

 eigenvalues of (default mixing * dielectric matrix)
  average eigenvalue GAMMA=   1.6939
  1.2534  2.1344

 Free energy of the ion-electron system (eV)
  ---------------------------------------------------
  alpha Z        PSCENC =         0.24311671
  Ewald energy   TEWEN  =       129.32101347
  -Hartree energ DENC   =      -274.20826414
  -exchange      EXHF   =         0.00000000
  -V(xc)+E(xc)   XCENC  =        23.99296906
  PAW double counting   =       368.95277832     -369.76342047
  entropy T*S    EENTRO =        -0.00000000
  eigenvalues    EBANDS =       -99.69376341
  atomic energy  EATOM  =       197.04175453
  Solvation  Ediel_sol  =         0.00000000
  ---------------------------------------------------
  free energy    TOTEN  =       -24.11381593 eV

  energy without entropy =      -24.11381593  energy(sigma->0) =      -24.11381593


--------------------------------------------------------------------------------------------------------




--------------------------------------- Iteration      1(   8)  ---------------------------------------


    POTLOK:  cpu time    1.5422: real time    1.5459
    SETDIJ:  cpu time    0.0062: real time    0.0062
     EDDAV:  cpu time    0.7594: real time    0.7612
       DOS:  cpu time    0.0001: real time    0.0001
    CHARGE:  cpu time    0.0785: real time    0.0787
    MIXING:  cpu time    0.0339: real time    0.0340
    --------------------------------------------
      LOOP:  cpu time    2.4203: real time    2.4260

 eigenvalue-minimisations  :    32
 total energy-change (2. order) : 0.1640501E+00  (-0.1699332E-01)
 number of electron       7.9999998 magnetization 
 augmentation part        0.1870673 magnetization 

 Broyden mixing:
  rms(total) = 0.26803E-01    rms(broyden)= 0.26775E-01
  rms(prec ) = 0.55370E-01
  weight for this iteration     100.00

 eigenvalues of (default mixing * dielectric matrix)
  average eigenvalue GAMMA=   1.5739
  2.1710  1.1281  1.4226

 Free energy of the ion-electron system (eV)
  ---------------------------------------------------
  alpha Z        PSCENC =         0.24311671
  Ewald energy   TEWEN  =       129.32101347
  -Hartree energ DENC   =      -281.19220119
  -exchange      EXHF   =         0.00000000
  -V(xc)+E(xc)   XCENC  =        24.61571870
  PAW double counting   =       482.89775490     -483.69444244
  entropy T*S    EENTRO =        -0.00000000
  eigenvalues    EBANDS =       -93.18248048
  atomic energy  EATOM  =       197.04175453
  Solvation  Ediel_sol  =         0.00000000
  ---------------------------------------------------
  free energy    TOTEN  =       -23.94976579 eV

  energy without entropy =      -23.94976579  energy(sigma->0) =      -23.94976579


--------------------------------------------------------------------------------------------------------




--------------------------------------- Iteration      1(   9)  ---------------------------------------


    POTLOK:  cpu time    1.5479: real time    1.5515
    SETDIJ:  cpu time    0.0064: real time    0.0064
     EDDAV:  cpu time    0.4386: real time    0.4396
       DOS:  cpu time    0.0001: real time    0.0001
    CHARGE:  cpu time    0.0817: real time    0.0819
    MIXING:  cpu time    0.0350: real time    0.0350
    --------------------------------------------
      LOOP:  cpu time    2.1095: real time    2.1145

 eigenvalue-minimisations  :    16
 total energy-change (2. order) : 0.7736255E-02  (-0.3646906E-03)
 number of electron       7.9999998 magnetization 
 augmentation part        0.1865834 magnetization 

 Broyden mixing:
  rms(total) = 0.16026E-01    rms(broyden)= 0.16021E-01
  rms(prec ) = 0.35807E-01
  weight for this iteration     100.00

 eigenvalues of (default mixing * dielectric matrix)
  average eigenvalue GAMMA=   1.8967
  2.9448  2.4413  0.9908  1.2099

 Free energy of the ion-electron system (eV)
  ---------------------------------------------------
  alpha Z        PSCENC =         0.24311671
  Ewald energy   TEWEN  =       129.32101347
  -Hartree energ DENC   =      -282.64351181
  -exchange      EXHF   =         0.00000000
  -V(xc)+E(xc)   XCENC  =        24.69750005
  PAW double counting   =       481.84322620     -482.63696189
  entropy T*S    EENTRO =        -0.00000000
  eigenvalues    EBANDS =       -91.80816680
  atomic energy  EATOM  =       197.04175453
  Solvation  Ediel_sol  =         0.00000000
  ---------------------------------------------------
  free energy    TOTEN  =       -23.94202953 eV

  energy without entropy =      -23.94202953  energy(sigma->0) =      -23.94202953


--------------------------------------------------------------------------------------------------------




--------------------------------------- Iteration      1(  10)  ---------------------------------------


    POTLOK:  cpu time    1.5105: real time    1.5141
    SETDIJ:  cpu time    0.0064: real time    0.0064
     EDDAV:  cpu time    0.4453: real time    0.4464
       DOS:  cpu time    0.0001: real time    0.0001
    CHARGE:  cpu time    0.0821: real time    0.0823
    MIXING:  cpu time    0.0352: real time    0.0353
    --------------------------------------------
      LOOP:  cpu time    2.0797: real time    2.0846

 eigenvalue-minimisations  :    16
 total energy-change (2. order) : 0.8615914E-02  (-0.5396518E-03)
 number of electron       7.9999998 magnetization 
 augmentation part        0.1863466 magnetization 

 Broyden mixing:
  rms(total) = 0.67171E-02    rms(broyden)= 0.67158E-02
  rms(prec ) = 0.16160E-01
  weight for this iteration     100.00

 eigenvalues of (default mixing * dielectric matrix)
  average eigenvalue GAMMA=   2.1283
  3.5276  1.0034  1.2125  2.4491  2.4491

 Free energy of the ion-electron system (eV)
  ---------------------------------------------------
  alpha Z        PSCENC =         0.24311671
  Ewald energy   TEWEN  =       129.32101347
  -Hartree energ DENC   =      -284.23695661
  -exchange      EXHF   =         0.00000000
  -V(xc)+E(xc)   XCENC  =        24.76695115
  PAW double counting   =       472.09806278     -472.88791415
  entropy T*S    EENTRO =        -0.00000000
  eigenvalues    EBANDS =       -90.27944151
  atomic energy  EATOM  =       197.04175453
  Solvation  Ediel_sol  =         0.00000000
  ---------------------------------------------------
  free energy    TOTEN  =       -23.93341362 eV

  energy without entropy =      -23.93341362  energy(sigma->0) =      -23.93341362


--------------------------------------------------------------------------------------------------------




--------------------------------------- Iteration      1(  11)  ---------------------------------------


    POTLOK:  cpu time    1.3894: real time    1.3927
    SETDIJ:  cpu time    0.0065: real time    0.0065
     EDDAV:  cpu time    0.6328: real time    0.6342
       DOS:  cpu time    0.0001: real time    0.0001
    CHARGE:  cpu time    0.0836: real time    0.0838
    MIXING:  cpu time    0.0384: real time    0.0385
    --------------------------------------------
      LOOP:  cpu time    2.1508: real time    2.1558

 eigenvalue-minimisations  :    24
 total energy-change (2. order) :-0.8918981E-02  (-0.3996677E-03)
 number of electron       7.9999998 magnetization 
 augmentation part        0.1858791 magnetization 

 Broyden mixing:
  rms(total) = 0.61182E-02    rms(broyden)= 0.61173E-02
  rms(prec ) = 0.10127E-01
  weight for this iteration     100.00

 eigenvalues of (default mixing * dielectric matrix)
  average eigenvalue GAMMA=   2.1392
  4.5388  2.8556  2.2665  1.2346  0.9700  0.9700

 Free energy of the ion-electron system (eV)
  ---------------------------------------------------
  alpha Z        PSCENC =         0.24311671
  Ewald energy   TEWEN  =       129.32101347
  -Hartree energ DENC   =      -285.23292884
  -exchange      EXHF   =         0.00000000
  -V(xc)+E(xc)   XCENC  =        24.80403999
  PAW double counting   =       475.07778698     -475.86932891
  entropy T*S    EENTRO =        -0.00000000
  eigenvalues    EBANDS =       -89.32778654
  atomic energy  EATOM  =       197.04175453
  Solvation  Ediel_sol  =         0.00000000
  ---------------------------------------------------
  free energy    TOTEN  =       -23.94233260 eV

  energy without entropy =      -23.94233260  energy(sigma->0) =      -23.94233260


--------------------------------------------------------------------------------------------------------




--------------------------------------- Iteration      1(  12)  ---------------------------------------


    POTLOK:  cpu time    1.3877: real time    1.3909
    SETDIJ:  cpu time    0.0064: real time    0.0064
     EDDAV:  cpu time    0.8167: real time    0.8186
       DOS:  cpu time    0.0001: real time    0.0001
    CHARGE:  cpu time    0.0853: real time    0.0856
    MIXING:  cpu time    0.0375: real time    0.0376
    --------------------------------------------
      LOOP:  cpu time    2.3338: real time    2.3393

 eigenvalue-minimisations  :    32
 total energy-change (2. order) :-0.2481555E-02  (-0.6861574E-04)
 number of electron       7.9999998 magnetization 
 augmentation part        0.1860953 magnetization 

 Broyden mixing:
  rms(total) = 0.21570E-02    rms(broyden)= 0.21568E-02
  rms(prec ) = 0.48747E-02
  weight for this iteration     100.00

 eigenvalues of (default mixing * dielectric matrix)
  average eigenvalue GAMMA=   2.3210
  5.1377  3.0217  2.7609  2.0511  1.2451  1.0152  1.0152

 Free energy of the ion-electron system (eV)
  ---------------------------------------------------
  alpha Z        PSCENC =         0.24311671
  Ewald energy   TEWEN  =       129.32101347
  -Hartree energ DENC   =      -284.89748783
  -exchange      EXHF   =         0.00000000
  -V(xc)+E(xc)   XCENC  =        24.77513961
  PAW double counting   =       471.56827210     -472.35905056
  entropy T*S    EENTRO =        -0.00000000
  eigenvalues    EBANDS =       -89.63757220
  atomic energy  EATOM  =       197.04175453
  Solvation  Ediel_sol  =         0.00000000
  ---------------------------------------------------
  free energy    TOTEN  =       -23.94481416 eV

  energy without entropy =      -23.94481416  energy(sigma->0) =      -23.94481416


--------------------------------------------------------------------------------------------------------




--------------------------------------- Iteration      1(  13)  ---------------------------------------


    POTLOK:  cpu time    1.3649: real time    1.3681
    SETDIJ:  cpu time    0.0064: real time    0.0064
     EDDAV:  cpu time    0.4519: real time    0.4530
       DOS:  cpu time    0.0001: real time    0.0001
    CHARGE:  cpu time    0.0908: real time    0.0911
    MIXING:  cpu time    0.0391: real time    0.0392
    --------------------------------------------
      LOOP:  cpu time    1.9533: real time    1.9579

 eigenvalue-minimisations  :    16
 total energy-change (2. order) :-0.4019049E-02  (-0.9115511E-04)
 number of electron       7.9999998 magnetization 
 augmentation part        0.1860840 magnetization 

 Broyden mixing:
  rms(total) = 0.17035E-02    rms(broyden)= 0.17033E-02
  rms(prec ) = 0.25450E-02
  weight for this iteration     100.00

 eigenvalues of (default mixing * dielectric matrix)
  average eigenvalue GAMMA=   2.3749
  6.0339  3.7983  2.5400  2.2985  1.2617  1.0628  1.0257  0.9781

 Free energy of the ion-electron system (eV)
  ---------------------------------------------------
  alpha Z        PSCENC =         0.24311671
  Ewald energy   TEWEN  =       129.32101347
  -Hartree energ DENC   =      -284.94931397
  -exchange      EXHF   =         0.00000000
  -V(xc)+E(xc)   XCENC  =        24.77362535
  PAW double counting   =       473.10331928     -473.89337472
  entropy T*S    EENTRO =        -0.00000000
  eigenvalues    EBANDS =       -89.58897386
  atomic energy  EATOM  =       197.04175453
  Solvation  Ediel_sol  =         0.00000000
  ---------------------------------------------------
  free energy    TOTEN  =       -23.94883321 eV

  energy without entropy =      -23.94883321  energy(sigma->0) =      -23.94883321


--------------------------------------------------------------------------------------------------------




--------------------------------------- Iteration      1(  14)  ---------------------------------------


    POTLOK:  cpu time    1.3640: real time    1.3672
    SETDIJ:  cpu time    0.0065: real time    0.0065
     EDDAV:  cpu time    0.6288: real time    0.6303
       DOS:  cpu time    0.0001: real time    0.0001
    CHARGE:  cpu time    0.0833: real time    0.0835
    MIXING:  cpu time    0.0391: real time    0.0392
    --------------------------------------------
      LOOP:  cpu time    2.1218: real time    2.1268

 eigenvalue-minimisations  :    24
 total energy-change (2. order) :-0.6244041E-03  (-0.6734653E-05)
 number of electron       7.9999998 magnetization 
 augmentation part        0.1860697 magnetization 

 Broyden mixing:
  rms(total) = 0.67461E-03    rms(broyden)= 0.67452E-03
  rms(prec ) = 0.13050E-02
  weight for this iteration     100.00

 eigenvalues of (default mixing * dielectric matrix)
  average eigenvalue GAMMA=   2.5123
  6.8486  4.1529  2.9004  2.3755  2.0118  1.2570  1.0029  1.0029  1.0585

 Free energy of the ion-electron system (eV)
  ---------------------------------------------------
  alpha Z        PSCENC =         0.24311671
  Ewald energy   TEWEN  =       129.32101347
  -Hartree energ DENC   =      -284.90582201
  -exchange      EXHF   =         0.00000000
  -V(xc)+E(xc)   XCENC  =        24.76817405
  PAW double counting   =       472.17166747     -472.96201740
  entropy T*S    EENTRO =        -0.00000000
  eigenvalues    EBANDS =       -89.62734443
  atomic energy  EATOM  =       197.04175453
  Solvation  Ediel_sol  =         0.00000000
  ---------------------------------------------------
  free energy    TOTEN  =       -23.94945761 eV

  energy without entropy =      -23.94945761  energy(sigma->0) =      -23.94945761


--------------------------------------------------------------------------------------------------------




--------------------------------------- Iteration      1(  15)  ---------------------------------------


    POTLOK:  cpu time    1.3620: real time    1.3652
    SETDIJ:  cpu time    0.0064: real time    0.0064
     EDDAV:  cpu time    0.4668: real time    0.4679
       DOS:  cpu time    0.0001: real time    0.0001
    CHARGE:  cpu time    0.0869: real time    0.0871
    MIXING:  cpu time    0.0407: real time    0.0408
    --------------------------------------------
      LOOP:  cpu time    1.9630: real time    1.9676

 eigenvalue-minimisations  :    16
 total energy-change (2. order) :-0.3908826E-03  (-0.2460159E-05)
 number of electron       7.9999998 magnetization 
 augmentation part        0.1860649 magnetization 

 Broyden mixing:
  rms(total) = 0.41792E-03    rms(broyden)= 0.41791E-03
  rms(prec ) = 0.56769E-03
  weight for this iteration     100.00

 eigenvalues of (default mixing * dielectric matrix)
  average eigenvalue GAMMA=   2.4908
  7.3426  4.6057  2.9013  2.5015  2.2025  1.2788  1.1328  0.9661  0.9661  1.0109

 Free energy of the ion-electron system (eV)
  ---------------------------------------------------
  alpha Z        PSCENC =         0.24311671
  Ewald energy   TEWEN  =       129.32101347
  -Hartree energ DENC   =      -284.92404217
  -exchange      EXHF   =         0.00000000
  -V(xc)+E(xc)   XCENC  =        24.76903068
  PAW double counting   =       471.95469566     -472.74505889
  entropy T*S    EENTRO =        -0.00000000
  eigenvalues    EBANDS =       -89.61035849
  atomic energy  EATOM  =       197.04175453
  Solvation  Ediel_sol  =         0.00000000
  ---------------------------------------------------
  free energy    TOTEN  =       -23.94984849 eV

  energy without entropy =      -23.94984849  energy(sigma->0) =      -23.94984849


--------------------------------------------------------------------------------------------------------




--------------------------------------- Iteration      1(  16)  ---------------------------------------


    POTLOK:  cpu time    1.3642: real time    1.3675
    SETDIJ:  cpu time    0.0064: real time    0.0064
     EDDAV:  cpu time    0.8343: real time    0.8362
       DOS:  cpu time    0.0001: real time    0.0001
    CHARGE:  cpu time    0.0843: real time    0.0845
    MIXING:  cpu time    0.0405: real time    0.0406
    --------------------------------------------
      LOOP:  cpu time    2.3297: real time    2.3352

 eigenvalue-minimisations  :    32
 total energy-change (2. order) :-0.4725715E-04  (-0.1163002E-06)
 number of electron       7.9999998 magnetization 
 augmentation part        0.1860658 magnetization 

 Broyden mixing:
  rms(total) = 0.17653E-03    rms(broyden)= 0.17650E-03
  rms(prec ) = 0.32167E-03
  weight for this iteration     100.00

 eigenvalues of (default mixing * dielectric matrix)
  average eigenvalue GAMMA=   2.6710
  8.1682  4.8403  3.8522  2.4847  2.4847  2.1937  1.2828  1.1297  0.9688  0.9688
  1.0070

 Free energy of the ion-electron system (eV)
  ---------------------------------------------------
  alpha Z        PSCENC =         0.24311671
  Ewald energy   TEWEN  =       129.32101347
  -Hartree energ DENC   =      -284.92610241
  -exchange      EXHF   =         0.00000000
  -V(xc)+E(xc)   XCENC  =        24.76922303
  PAW double counting   =       472.09157304     -472.88194155
  entropy T*S    EENTRO =        -0.00000000
  eigenvalues    EBANDS =       -89.60853258
  atomic energy  EATOM  =       197.04175453
  Solvation  Ediel_sol  =         0.00000000
  ---------------------------------------------------
  free energy    TOTEN  =       -23.94989575 eV

  energy without entropy =      -23.94989575  energy(sigma->0) =      -23.94989575


--------------------------------------------------------------------------------------------------------




--------------------------------------- Iteration      1(  17)  ---------------------------------------


    POTLOK:  cpu time    1.4645: real time    1.4681
    SETDIJ:  cpu time    0.0066: real time    0.0066
     EDDAV:  cpu time    0.6448: real time    0.6463
       DOS:  cpu time    0.0001: real time    0.0001
    CHARGE:  cpu time    0.0821: real time    0.0823
    MIXING:  cpu time    0.0442: real time    0.0443
    --------------------------------------------
      LOOP:  cpu time    2.2423: real time    2.2477

 eigenvalue-minimisations  :    24
 total energy-change (2. order) :-0.4904718E-04  (-0.4148731E-06)
 number of electron       7.9999998 magnetization 
 augmentation part        0.1860541 magnetization 

 Broyden mixing:
  rms(total) = 0.14140E-03    rms(broyden)= 0.14135E-03
  rms(prec ) = 0.21117E-03
  weight for this iteration     100.00

 eigenvalues of (default mixing * dielectric matrix)
  average eigenvalue GAMMA=   2.5457
  8.3896  5.1215  3.7417  2.6524  2.3451  1.9747  1.2965  1.1900  0.9676  0.9676
  0.9750  0.9273

 Free energy of the ion-electron system (eV)
  ---------------------------------------------------
  alpha Z        PSCENC =         0.24311671
  Ewald energy   TEWEN  =       129.32101347
  -Hartree energ DENC   =      -284.94173052
  -exchange      EXHF   =         0.00000000
  -V(xc)+E(xc)   XCENC  =        24.76995622
  PAW double counting   =       472.15545192     -472.94587193
  entropy T*S    EENTRO =        -0.00000000
  eigenvalues    EBANDS =       -89.59363521
  atomic energy  EATOM  =       197.04175453
  Solvation  Ediel_sol  =         0.00000000
  ---------------------------------------------------
  free energy    TOTEN  =       -23.94994480 eV

  energy without entropy =      -23.94994480  energy(sigma->0) =      -23.94994480


--------------------------------------------------------------------------------------------------------




--------------------------------------- Iteration      1(  18)  ---------------------------------------


    POTLOK:  cpu time    1.4705: real time    1.4739
    SETDIJ:  cpu time    0.0064: real time    0.0064
     EDDAV:  cpu time    0.8167: real time    0.8186
       DOS:  cpu time    0.0001: real time    0.0001
    CHARGE:  cpu time    0.0913: real time    0.0915
    MIXING:  cpu time    0.0438: real time    0.0439
    --------------------------------------------
      LOOP:  cpu time    2.4287: real time    2.4345

 eigenvalue-minimisations  :    32
 total energy-change (2. order) :-0.1611692E-05  (-0.4057870E-07)
 number of electron       7.9999998 magnetization 
 augmentation part        0.1860602 magnetization 

 Broyden mixing:
  rms(total) = 0.37678E-04    rms(broyden)= 0.37657E-04
  rms(prec ) = 0.74806E-04
  weight for this iteration     100.00

 eigenvalues of (default mixing * dielectric matrix)
  average eigenvalue GAMMA=   2.5309
  8.4800  5.2971  3.7994  2.6691  2.4590  2.2021  1.3994  1.3994  1.2394  0.9973
  0.9973  0.9810  0.9810

 Free energy of the ion-electron system (eV)
  ---------------------------------------------------
  alpha Z        PSCENC =         0.24311671
  Ewald energy   TEWEN  =       129.32101347
  -Hartree energ DENC   =      -284.93718582
  -exchange      EXHF   =         0.00000000
  -V(xc)+E(xc)   XCENC  =        24.76974016
  PAW double counting   =       472.15597447     -472.94636630
  entropy T*S    EENTRO =        -0.00000000
  eigenvalues    EBANDS =       -89.59799364
  atomic energy  EATOM  =       197.04175453
  Solvation  Ediel_sol  =         0.00000000
  ---------------------------------------------------
  free energy    TOTEN  =       -23.94994641 eV

  energy without entropy =      -23.94994641  energy(sigma->0) =      -23.94994641


--------------------------------------------------------------------------------------------------------




--------------------------------------- Iteration      1(  19)  ---------------------------------------


    POTLOK:  cpu time    1.4959: real time    1.4995
    SETDIJ:  cpu time    0.0064: real time    0.0064
     EDDAV:  cpu time    0.4590: real time    0.4601
       DOS:  cpu time    0.0001: real time    0.0001
    CHARGE:  cpu time    0.0849: real time    0.0851
    MIXING:  cpu time    0.0438: real time    0.0439
    --------------------------------------------
      LOOP:  cpu time    2.0901: real time    2.0951

 eigenvalue-minimisations  :    16
 total energy-change (2. order) :-0.4094371E-05  (-0.1307467E-07)
 number of electron       7.9999998 magnetization 
 augmentation part        0.1860613 magnetization 

 Broyden mixing:
  rms(total) = 0.25997E-04    rms(broyden)= 0.25989E-04
  rms(prec ) = 0.43693E-04
  weight for this iteration     100.00

 eigenvalues of (default mixing * dielectric matrix)
  average eigenvalue GAMMA=   2.5275
  8.5687  5.4071  4.0746  3.0806  2.5988  2.3053  1.9259  1.2624  1.2042  0.9722
  1.0079  1.0079  0.9847  0.9847

 Free energy of the ion-electron system (eV)
  ---------------------------------------------------
  alpha Z        PSCENC =         0.24311671
  Ewald energy   TEWEN  =       129.32101347
  -Hartree energ DENC   =      -284.93580101
  -exchange      EXHF   =         0.00000000
  -V(xc)+E(xc)   XCENC  =        24.76964219
  PAW double counting   =       472.17191016     -472.96228316
  entropy T*S    EENTRO =        -0.00000000
  eigenvalues    EBANDS =       -89.59930340
  atomic energy  EATOM  =       197.04175453
  Solvation  Ediel_sol  =         0.00000000
  ---------------------------------------------------
  free energy    TOTEN  =       -23.94995050 eV

  energy without entropy =      -23.94995050  energy(sigma->0) =      -23.94995050


--------------------------------------------------------------------------------------------------------




--------------------------------------- Iteration      1(  20)  ---------------------------------------


    POTLOK:  cpu time    1.5003: real time    1.5039
    SETDIJ:  cpu time    0.0064: real time    0.0064
     EDDAV:  cpu time    0.6294: real time    0.6309
       DOS:  cpu time    0.0001: real time    0.0001
    --------------------------------------------
      LOOP:  cpu time    2.1361: real time    2.1412

 eigenvalue-minimisations  :    24
 total energy-change (2. order) :-0.8955201E-06  (-0.2950248E-08)
 number of electron       7.9999998 magnetization 
 augmentation part        0.1860613 magnetization 

 Free energy of the ion-electron system (eV)
  ---------------------------------------------------
  alpha Z        PSCENC =         0.24311671
  Ewald energy   TEWEN  =       129.32101347
  -Hartree energ DENC   =      -284.93569860
  -exchange      EXHF   =         0.00000000
  -V(xc)+E(xc)   XCENC  =        24.76961947
  PAW double counting   =       472.16732899     -472.95770386
  entropy T*S    EENTRO =        -0.00000000
  eigenvalues    EBANDS =       -89.59938212
  atomic energy  EATOM  =       197.04175453
  Solvation  Ediel_sol  =         0.00000000
  ---------------------------------------------------
  free energy    TOTEN  =       -23.94995140 eV

  energy without entropy =      -23.94995140  energy(sigma->0) =      -23.94995140


--------------------------------------------------------------------------------------------------------




 average (electrostatic) potential at core
  the test charge radii are     0.5201  0.6991
  (the norm of the test charge is              1.0000)
       1 -41.8504       2 -41.6201       3 -41.1543       4 -41.4881       5 -57.9556



 E-fermi :  -8.7186     XC(G=0):  -0.6992     alpha+bet : -0.2114


 k-point     1 :       0.0000    0.0000    0.0000
  band No.  band energies     occupation 
      1     -16.9150      2.00000
      2      -9.6600      2.00000
      3      -9.2640      2.00000
      4      -8.9608      2.00000
      5      -0.5305      0.00000
      6       0.9634      0.00000
      7       1.0088      0.00000
      8       1.0505      0.00000


--------------------------------------------------------------------------------------------------------


 soft charge-density along one line, spin component           1
         0         1         2         3         4         5         6         7         8         9
 total charge-density along one line

 pseudopotential strength for first ion, spin component:           1
 -2.344  -4.041  -0.001  -0.001  -0.001
 -4.041  -6.878  -0.002  -0.004  -0.004
 -0.001  -0.002  -0.336   0.001   0.002
 -0.001  -0.004   0.001  -0.335   0.002
 -0.001  -0.004   0.002   0.002  -0.334
 total augmentation occupancy for first ion, spin component:           1
  3.661  -0.653   0.175   0.284   0.338
 -0.653   0.130  -0.032  -0.051  -0.062
  0.175  -0.032   0.017   0.011   0.013
  0.284  -0.051   0.011   0.029   0.022
  0.338  -0.062   0.013   0.022   0.036


------------------------ aborting loop because EDIFF is reached ----------------------------------------


    CHARGE:  cpu time    0.0852: real time    0.0854
    FORLOC:  cpu time    0.1081: real time    0.1084
    FORNL :  cpu time    0.1517: real time    0.1520
    STRESS:  cpu time    0.5751: real time    0.5765
    FORCOR:  cpu time    1.5978: real time    1.6016
    FORHAR:  cpu time    0.5177: real time    0.5189
    MIXING:  cpu time    0.0454: real time    0.0455
    OFIELD:  cpu time    0.0000: real time    0.0000

  FORCE on cell =-STRESS in cart. coord.  units (eV):
  Direction    XX          YY          ZZ          XY          YZ          ZX
  --------------------------------------------------------------------------------------
  Alpha Z     0.24312     0.24312     0.24312
  Ewald      43.84915    42.02947    43.44237     3.21210     2.70565     3.16504
  Hartree    94.62978    97.74823    92.55854     0.16059     1.28140     0.22090
  E(xc)     -27.24321   -27.24866   -27.23078     0.01070     0.01988     0.00711
  Local    -196.73561  -199.81052  -193.81667    -2.41779    -3.79996    -2.38246
  n-local   -15.98958   -15.87369   -16.02095    -0.03662     0.08368    -0.03873
  augment     0.11013     0.12588     0.10660    -0.00801    -0.00018    -0.00928
  Kinetic   101.38240   101.79955   100.87585    -0.56917    -1.05001    -0.43825
  Fock        0.00000     0.00000     0.00000     0.00000     0.00000     0.00000
  -------------------------------------------------------------------------------------
  Total       0.24617    -0.98663     0.15808     0.35181    -0.75954     0.52434
  in kB       0.39582    -1.58641     0.25418     0.56567    -1.22128     0.84308
  external pressure =       -0.31 kB  Pullay stress =        0.00 kB


 VOLUME and BASIS-vectors are now :
 -----------------------------------------------------------------------------
  energy-cutoff  :      400.00
  volume of cell :      996.44
      direct lattice vectors                 reciprocal lattice vectors
    10.006619500  0.000000000  0.000000000     0.099933849  0.002269562  0.000748798
    -0.221244500  9.741885200  0.000000000     0.000000000  0.102649536 -0.002424515
    -0.082073000  0.241428100 10.221626300     0.000000000 -0.000000000  0.097831790

  length of vectors
    10.006619500  9.744397179 10.224806488     0.099962422  0.102678165  0.097831790


 FORCES acting on ions
    electron-ion (+dipol)            ewald-force                    non-local-force                 convergence-correction
 -----------------------------------------------------------------------------------------------
   0.387E+02 0.199E+02 0.325E+02   -.439E+02 -.224E+02 -.367E+02   0.430E+01 0.223E+01 0.363E+01   -.474E-04 -.407E-04 -.494E-04
   -.686E+01 0.301E+02 -.440E+02   0.763E+01 -.339E+02 0.492E+02   -.789E+00 0.314E+01 -.477E+01   0.257E-04 -.324E-04 0.644E-04
   0.110E+02 -.464E+02 -.177E+02   -.119E+02 0.498E+02 0.187E+02   0.959E+00 -.441E+01 -.177E+01   -.976E-06 0.418E-04 0.446E-04
   -.464E+02 -.316E+01 0.254E+02   0.512E+02 0.348E+01 -.282E+02   -.486E+01 -.359E+00 0.257E+01   0.707E-04 -.121E-04 -.218E-04
   0.317E+01 -.220E+01 0.310E+01   -.311E+01 0.304E+01 -.302E+01   0.785E+00 0.119E+01 0.989E+00   0.154E-03 -.106E-03 0.133E-03
 -----------------------------------------------------------------------------------------------
   -.399E+00 -.179E+01 -.649E+00   -.142E-13 0.400E-14 0.000E+00   0.399E+00 0.179E+01 0.649E+00   0.202E-03 -.149E-03 0.171E-03


 POSITION                                       TOTAL-FORCE (eV/Angst)
 -----------------------------------------------------------------------------------
      4.12440      4.27336      3.89771        -0.844535     -0.303905     -0.603147
      5.02507      4.06410      5.41764        -0.016042     -0.630739      0.416193
      4.64360      5.70559      4.93455         0.015281     -1.054998     -0.714257
      5.84552      4.73095      4.01466        -0.001555     -0.039240     -0.164799
      4.88260      4.66313      4.53255         0.846851      2.028883      1.066010
 -----------------------------------------------------------------------------------
    total drift:                                0.000242      0.000608      0.000090


--------------------------------------------------------------------------------------------------------



  FREE ENERGIE OF THE ION-ELECTRON SYSTEM (eV)
  ---------------------------------------------------
  free  energy   TOTEN  =       -23.94995140 eV

  energy  without entropy=      -23.94995140  energy(sigma->0) =      -23.94995140



--------------------------------------------------------------------------------------------------------


    POTLOK:  cpu time    1.5241: real time    1.5277


--------------------------------------------------------------------------------------------------------


     LOOP+:  cpu time   41.8723: real time   41.9761
    4ORBIT:  cpu time    0.0000: real time    0.0000

 total amount of memory used by VASP MPI-rank0   274697. kBytes
=======================================================================

   base      :      30000. kBytes
   nonlr-proj:       1237. kBytes
   fftplans  :      86584. kBytes
   grid      :     154542. kBytes
   one-center:         15. kBytes
   wavefun   :       2319. kBytes

  
  
 General timing and accounting informations for this job:
 ========================================================
  
                  Total CPU time used (sec):       43.370
                            User time (sec):       42.015
                          System time (sec):        1.355
                         Elapsed time (sec):       43.497
  
                   Maximum memory used (kb):      389016.
                   Average memory used (kb):           0.
  
                          Minor page faults:       210155
                          Major page faults:            0
                 Voluntary context switches:          169
