 vasp.5.4.4.18Apr17-6-g9f103f2a35 (build Jul 12 2018 13:43:46) complex           
 executed on             LinuxGNU date 2019.06.25  21:09:30
 running on    1 total cores
 distrk:  each k-point on    1 cores,    1 groups
 distr:  one band on NCORES_PER_BAND=   1 cores,    1 groups


--------------------------------------------------------------------------------------------------------


 INCAR:
 POTCAR:    PAW_PBE H 15Jun2001                   
 POTCAR:    PAW_PBE C 08Apr2002                   
 POTCAR:    PAW_PBE H 15Jun2001                   
   VRHFIN =H: ultrasoft test                                                    
   LEXCH  = PE                                                                  
   EATOM  =    12.4884 eV,    0.9179 Ry                                         
                                                                                
   TITEL  = PAW_PBE H 15Jun2001                                                 
   LULTRA =        F    use ultrasoft PP ?                                      
   IUNSCR =        0    unscreen: 0-lin 1-nonlin 2-no                           
   RPACOR =    0.000    partial core radius                                     
   POMASS =    1.000; ZVAL   =    1.000    mass and valenz                      
   RCORE  =    1.100    outmost cutoff radius                                   
   RWIGS  =    0.700; RWIGS  =    0.370    wigner-seitz radius (au A)           
   ENMAX  =  250.000; ENMIN  =  200.000 eV                                      
   RCLOC  =    0.701    cutoff for local pot                                    
   LCOR   =        T    correct aug charges                                     
   LPAW   =        T    paw PP                                                  
   EAUG   =  400.000                                                            
   RMAX   =    1.123    core radius for proj-oper                               
   RAUG   =    1.200    factor for augmentation sphere                          
   RDEP   =    1.112    radius for radial grids                                 
   RDEPT  =    0.926    core radius for aug-charge                              
                                                                                
   Atomic configuration                                                         
    2 entries                                                                   
     n  l   j            E        occ.                                          
     1  0  0.50        -6.4927   1.0000                                         
     2  1  0.50        -3.4015   0.0000                                         
   Description                                                                  
     l       E           TYP  RCUT    TYP  RCUT                                 
     0     -6.4927494     23  1.100                                             
     0      6.8029130     23  1.100                                             
     1     -4.0817478     23  1.100                                             
  local pseudopotential read in
  atomic valenz-charges read in
  non local Contribution for L=           0  read in
    real space projection operators read in
  non local Contribution for L=           0  read in
    real space projection operators read in
  non local Contribution for L=           1  read in
    real space projection operators read in
    PAW grid and wavefunctions read in

   number of l-projection  operators is LMAX  =           3
   number of lm-projection operators is LMMAX =           5

 POTCAR:    PAW_PBE C 08Apr2002                   
   VRHFIN =C: s2p2                                                              
   LEXCH  = PE                                                                  
   EATOM  =   147.1560 eV,   10.8157 Ry                                         
                                                                                
   TITEL  = PAW_PBE C 08Apr2002                                                 
   LULTRA =        F    use ultrasoft PP ?                                      
   IUNSCR =        1    unscreen: 0-lin 1-nonlin 2-no                           
   RPACOR =    1.200    partial core radius                                     
   POMASS =   12.011; ZVAL   =    4.000    mass and valenz                      
   RCORE  =    1.500    outmost cutoff radius                                   
   RWIGS  =    1.630; RWIGS  =    0.863    wigner-seitz radius (au A)           
   ENMAX  =  400.000; ENMIN  =  300.000 eV                                      
   ICORE  =        2    local potential                                         
   LCOR   =        T    correct aug charges                                     
   LPAW   =        T    paw PP                                                  
   EAUG   =  644.873                                                            
   DEXC   =    0.000                                                            
   RMAX   =    1.529    core radius for proj-oper                               
   RAUG   =    1.300    factor for augmentation sphere                          
   RDEP   =    1.501    radius for radial grids                                 
   RDEPT  =    1.300    core radius for aug-charge                              
                                                                                
   Atomic configuration                                                         
    4 entries                                                                   
     n  l   j            E        occ.                                          
     1  0  0.50      -273.3789   2.0000                                         
     2  0  0.50       -13.7508   2.0000                                         
     2  1  0.50        -5.2854   2.0000                                         
     3  2  1.50        -5.4423   0.0000                                         
   Description                                                                  
     l       E           TYP  RCUT    TYP  RCUT                                 
     0    -13.7508458     23  1.200                                             
     0     -8.2022199     23  1.200                                             
     1     -5.2854383     23  1.500                                             
     1     34.0145650     23  1.500                                             
     2     -5.4423304      7  1.500                                             
  local pseudopotential read in
  partial core-charges read in
  partial kinetic energy density read in
  atomic valenz-charges read in
  non local Contribution for L=           0  read in
    real space projection operators read in
  non local Contribution for L=           0  read in
    real space projection operators read in
  non local Contribution for L=           1  read in
    real space projection operators read in
  non local Contribution for L=           1  read in
    real space projection operators read in
    PAW grid and wavefunctions read in

   number of l-projection  operators is LMAX  =           4
   number of lm-projection operators is LMMAX =           8


 ----------------------------------------------------------------------------- 
|                                                                             |
|  ADVICE TO THIS USER RUNNING 'VASP/VAMP'   (HEAR YOUR MASTER'S VOICE ...):  |
|                                                                             |
|      You have a (more or less) 'small supercell' and for smaller cells      |
|      it is recommended  to use the reciprocal-space projection scheme!      |
|      The real space optimization is not  efficient for small cells and it   |
|      is also less accurate ...                                              |
|      Therefore set LREAL=.FALSE. in the  INCAR file                         |
|                                                                             |
 ----------------------------------------------------------------------------- 

 Optimization of the real space projectors (new method)

 maximal supplied QI-value         = 34.20
 optimisation between [QCUT,QGAM] = [  9.92, 20.18] = [ 27.55,114.04] Ry 
 Optimized for a Real-space Cutoff    1.34 Angstroem

   l    n(q)    QCUT    max X(q) W(low)/X(q) W(high)/X(q)  e(spline) 
   0      8     9.919    19.460    0.16E-03    0.20E-03    0.36E-06
   0      8     9.919    12.209    0.16E-03    0.20E-03    0.35E-06
   1      8     9.919     4.655    0.19E-03    0.46E-03    0.40E-06
 Optimization of the real space projectors (new method)

 maximal supplied QI-value         = 25.13
 optimisation between [QCUT,QGAM] = [ 10.05, 20.36] = [ 28.30,116.06] Ry 
 Optimized for a Real-space Cutoff    1.51 Angstroem

   l    n(q)    QCUT    max X(q) W(low)/X(q) W(high)/X(q)  e(spline) 
   0      9    10.053   115.676    0.19E-03    0.21E-03    0.38E-06
   0      9    10.053    87.132    0.19E-03    0.21E-03    0.38E-06
   1      9    10.053     4.429    0.87E-04    0.11E-03    0.39E-06
   1      9    10.053     2.733    0.59E-04    0.62E-04    0.43E-06
  PAW_PBE H 15Jun2001                   :
 energy of atom  1       EATOM=  -12.4884
 kinetic energy error for atom=    0.0098 (will be added to EATOM!!)
  PAW_PBE C 08Apr2002                   :
 energy of atom  2       EATOM= -147.1560
 kinetic energy error for atom=    0.0288 (will be added to EATOM!!)


 POSCAR: POSCAR file written by OVITO            
  positions in cartesian coordinates
  No initial velocities read in
 exchange correlation table for  LEXCH =        8
   RHO(1)=    0.500       N(1)  =     2000
   RHO(2)=  100.500       N(2)  =     4000



--------------------------------------------------------------------------------------------------------


 ion  position               nearest neighbor table
   1  0.601  0.430  0.465-   5 1.10
   2  0.493  0.556  0.379-   5 1.07
   3  0.454  0.491  0.538-   5 1.07
   4  0.461  0.378  0.397-   5 1.12
   5  0.502  0.470  0.444-   3 1.07   2 1.07   1 1.10   4 1.12


IMPORTANT INFORMATION: All symmetrisations will be switched off!
NOSYMM: (Re-)initialisation of all symmetry stuff for point group C_1.




Automatic generation of k-mesh.
 generate k-points for:    1    1    1
Space group operators:
 irot       det(A)        alpha          n_x          n_y          n_z        tau_x        tau_y        tau_z
    1     1.000000     0.000000     1.000000     0.000000     0.000000     0.000000     0.000000     0.000000
 
 Subroutine IBZKPT returns following result:
 ===========================================
 
 Found      1 irreducible k-points:
 
 Following reciprocal coordinates:
            Coordinates               Weight
  0.000000  0.000000  0.000000      1.000000
 
 Following cartesian coordinates:
            Coordinates               Weight
  0.000000  0.000000  0.000000      1.000000
 


--------------------------------------------------------------------------------------------------------




 Dimension of arrays:
   k-points           NKPTS =      1   k-points in BZ     NKDIM =      1   number of bands    NBANDS=      8
   number of dos      NEDOS =    301   number of ions     NIONS =      5
   non local maximal  LDIM  =      4   non local SUM 2l+1 LMDIM =      8
   total plane-waves  NPLWV = 313600
   max r-space proj   IRMAX =   4552   max aug-charges    IRDMAX=   3894
   dimension x,y,z NGX =    70 NGY =   70 NGZ =   64
   dimension x,y,z NGXF=   140 NGYF=  140 NGZF=  128
   support grid    NGXF=   140 NGYF=  140 NGZF=  128
   ions per type =               4   1
   NGX,Y,Z   is equivalent  to a cutoff of  11.42, 11.69, 10.77 a.u.
   NGXF,Y,Z  is equivalent  to a cutoff of  22.84, 23.38, 21.55 a.u.

 SYSTEM =  unknown system                          
 POSCAR =  POSCAR file written by OVITO            

 Startparameter for this run:
   NWRITE =      2    write-flag & timer
   PREC   = a         normal or accurate (medium, high low for compatibility)
   ISTART =      0    job   : 0-new  1-cont  2-samecut
   ICHARG =      2    charge: 1-file 2-atom 10-const
   ISPIN  =      1    spin polarized calculation?
   LNONCOLLINEAR =      F non collinear calculations
   LSORBIT =      F    spin-orbit coupling
   INIWAV =      1    electr: 0-lowe 1-rand  2-diag
   LASPH  =      F    aspherical Exc in radial PAW
   METAGGA=      F    non-selfconsistent MetaGGA calc.

 Electronic Relaxation 1
   ENCUT  =  400.0 eV  29.40 Ry    5.42 a.u.  16.62 16.23 16.10*2*pi/ulx,y,z
   ENINI  =  400.0     initial cutoff
   ENAUG  =  644.9 eV  augmentation charge cutoff
   NELM   =    120;   NELMIN=  4; NELMDL= -5     # of ELM steps 
   EDIFF  = 0.1E-05   stopping-criterion for ELM
   LREAL  =      T    real-space projection
   NLSPLINE    = F    spline interpolate recip. space projectors
   LCOMPAT=      F    compatible to vasp.4.4
   GGA_COMPAT  = T    GGA compatible to vasp.4.4-vasp.4.6
   LMAXPAW     = -100 max onsite density
   LMAXMIX     =    2 max onsite mixed and CHGCAR
   VOSKOWN=      0    Vosko Wilk Nusair interpolation
   ROPT   =   -0.00025  -0.00025
 Ionic relaxation
   EDIFFG = 0.1E-04   stopping-criterion for IOM
   NSW    =      0    number of steps for IOM
   NBLOCK =      1;   KBLOCK =      1    inner block; outer block 
   IBRION =     -1    ionic relax: 0-MD 1-quasi-New 2-CG
   NFREE  =      0    steps in history (QN), initial steepest desc. (CG)
   ISIF   =      2    stress and relaxation
   IWAVPR =     10    prediction:  0-non 1-charg 2-wave 3-comb
   ISYM   =      0    0-nonsym 1-usesym 2-fastsym
   LCORR  =      T    Harris-Foulkes like correction to forces

   POTIM  = 0.5000    time-step for ionic-motion
   TEIN   =    0.0    initial temperature
   TEBEG  =    0.0;   TEEND  =   0.0 temperature during run
   SMASS  =  -3.00    Nose mass-parameter (am)
   estimated Nose-frequenzy (Omega)   =  0.10E-29 period in steps =****** mass=  -0.237E-26a.u.
   SCALEE = 1.0000    scale energy and forces
   NPACO  =    256;   APACO  = 16.0  distance and # of slots for P.C.
   PSTRESS=    0.0 pullay stress

  Mass of Ions in am
   POMASS =   1.00 12.01
  Ionic Valenz
   ZVAL   =   1.00  4.00
  Atomic Wigner-Seitz radii
   RWIGS  =  -1.00 -1.00
  virtual crystal weights 
   VCA    =   1.00  1.00
   NELECT =       8.0000    total number of electrons
   NUPDOWN=      -1.0000    fix difference up-down

 DOS related values:
   EMIN   =  10.00;   EMAX   =-10.00  energy-range for DOS
   EFERMI =   0.00
   ISMEAR =     0;   SIGMA  =   0.05  broadening in eV -4-tet -1-fermi 0-gaus

 Electronic relaxation 2 (details)
   IALGO  =     38    algorithm
   LDIAG  =      T    sub-space diagonalisation (order eigenvalues)
   LSUBROT=      F    optimize rotation matrix (better conditioning)
   TURBO    =      0    0=normal 1=particle mesh
   IRESTART =      0    0=no restart 2=restart with 2 vectors
   NREBOOT  =      0    no. of reboots
   NMIN     =      0    reboot dimension
   EREF     =   0.00    reference energy to select bands
   IMIX   =      4    mixing-type and parameters
     AMIX     =   0.40;   BMIX     =  1.00
     AMIX_MAG =   1.60;   BMIX_MAG =  1.00
     AMIN     =   0.10
     WC   =   100.;   INIMIX=   1;  MIXPRE=   1;  MAXMIX= -45

 Intra band minimization:
   WEIMIN = 0.0000     energy-eigenvalue tresh-hold
   EBREAK =  0.31E-07  absolut break condition
   DEPER  =   0.30     relativ break condition  

   TIME   =   0.40     timestep for ELM

  volume/ion in A,a.u.               =     200.33      1351.92
  Fermi-wavevector in a.u.,A,eV,Ry     =   0.327238  0.618389  1.456972  0.107084
  Thomas-Fermi vector in A             =   1.219791

 Write flags
   LWAVE        =      F    write WAVECAR
   LDOWNSAMPLE  =      F    k-point downsampling of WAVECAR
   LCHARG       =      F    write CHGCAR
   LVTOT        =      F    write LOCPOT, total local potential
   LVHAR        =      F    write LOCPOT, Hartree potential only
   LELF         =      F    write electronic localiz. function (ELF)
   LORBIT       =      0    0 simple, 1 ext, 2 COOP (PROOUT), +10 PAW based schemes


 Dipole corrections
   LMONO  =      F    monopole corrections only (constant potential shift)
   LDIPOL =      F    correct potential (dipole corrections)
   IDIPOL =      0    1-x, 2-y, 3-z, 4-all directions 
   EPSILON=  1.0000000 bulk dielectric constant

 Exchange correlation treatment:
   GGA     =    --    GGA type
   LEXCH   =     8    internal setting for exchange type
   VOSKOWN=      0    Vosko Wilk Nusair interpolation
   LHFCALC =     F    Hartree Fock is set to
   LHFONE  =     F    Hartree Fock one center treatment
   AEXX    =    0.0000 exact exchange contribution

 Linear response parameters
   LEPSILON=     F    determine dielectric tensor
   LRPA    =     F    only Hartree local field effects (RPA)
   LNABLA  =     F    use nabla operator in PAW spheres
   LVEL    =     F    velocity operator in full k-point grid
   LINTERFAST=   F  fast interpolation
   KINTER  =     0    interpolate to denser k-point grid
   CSHIFT  =0.1000    complex shift for real part using Kramers Kronig
   OMEGAMAX=  -1.0    maximum frequency
   DEG_THRESHOLD= 0.2000000E-02 threshold for treating states as degnerate
   RTIME   =   -0.100 relaxation time in fs
  (WPLASMAI=    0.000 imaginary part of plasma frequency in eV, 0.658/RTIME)
   DFIELD  = 0.0000000 0.0000000 0.0000000 field for delta impulse in time

 Orbital magnetization related:
   ORBITALMAG=     F  switch on orbital magnetization
   LCHIMAG   =     F  perturbation theory with respect to B field
   DQ        =  0.001000  dq finite difference perturbation B field
   LLRAUG    =     F  two centre corrections for induced B field



--------------------------------------------------------------------------------------------------------


 Static calculation
 charge density and potential will be updated during run
 non-spin polarized calculation
 Variant of blocked Davidson
 Davidson routine will perform the subspace rotation
 perform sub-space diagonalisation
    after iterative eigenvector-optimisation
 modified Broyden-mixing scheme, WC =      100.0
 initial mixing is a Kerker type mixing with AMIX =  0.4000 and BMIX =      1.0000
 Hartree-type preconditioning will be used
 using additional bands            4
 real space projection scheme for non local part
 use partial core corrections
 calculate Harris-corrections to forces   (improved forces if not selfconsistent)
 use gradient corrections 
 use of overlap-Matrix (Vanderbilt PP)
 Gauss-broadening in eV      SIGMA  =   0.05


--------------------------------------------------------------------------------------------------------


  energy-cutoff  :      400.00
  volume of cell :     1001.67
      direct lattice vectors                 reciprocal lattice vectors
    10.189528500  0.000000000  0.000000000     0.098139968 -0.000339389  0.000096806
     0.034426400  9.954976200  0.000000000     0.000000000  0.100452274 -0.000870026
    -0.009444900  0.085527000  9.874858000     0.000000000  0.000000000  0.101267279

  length of vectors
    10.189528500  9.955035727  9.875232888     0.098140602  0.100456042  0.101267279



 k-points in units of 2pi/SCALE and weight: read from INCAR                         
   0.00000000  0.00000000  0.00000000       1.000

 k-points in reciprocal lattice and weights: read from INCAR                         
   0.00000000  0.00000000  0.00000000       1.000

 position of ions in fractional coordinates (direct lattice) 
   0.60095695  0.43017702  0.46451097
   0.49254394  0.55585390  0.37868190
   0.45393790  0.49092060  0.53827307
   0.46089956  0.37808458  0.39656469
   0.50244712  0.46993194  0.44440438

 position of ions in cartesian coordinates  (Angst):
   6.13389020  4.32213020  4.58697990
   5.03434990  5.56589990  3.73943000
   4.63722990  4.93313980  5.31537010
   4.70561980  3.79774000  3.91602000
   5.13168000  4.71616990  4.38843010



--------------------------------------------------------------------------------------------------------


 k-point  1 :   0.0000 0.0000 0.0000  plane waves:   18171

 maximum and minimum number of plane-waves per node :     18171    18171

 maximum number of plane-waves:     18171
 maximum index in each direction: 
   IXMAX=   16   IYMAX=   16   IZMAX=   16
   IXMIN=  -16   IYMIN=  -16   IZMIN=  -16


 serial   3D FFT for wavefunctions
 parallel 3D FFT for charge:
    minimum data exchange during FFTs selected (reduces bandwidth)


 total amount of memory used by VASP MPI-rank0   274965. kBytes
=======================================================================

   base      :      30000. kBytes
   nonlr-proj:       1230. kBytes
   fftplans  :      86708. kBytes
   grid      :     154683. kBytes
   one-center:         15. kBytes
   wavefun   :       2329. kBytes

     INWAV:  cpu time    0.0000: real time    0.0000
 Broyden mixing: mesh for mixing (old mesh)
   NGX = 33   NGY = 33   NGZ = 33
  (NGX  =140   NGY  =140   NGZ  =128)
  gives a total of  35937 points

 initial charge density was supplied:
 charge density of overlapping atoms calculated
 number of electron       8.0000000 magnetization 
 keeping initial charge density in first step


--------------------------------------------------------------------------------------------------------


 Maximum index for non-local projection operator         4374
 Maximum index for augmentation-charges         3572 (set IRDMAX)


--------------------------------------------------------------------------------------------------------


 First call to EWALD:  gamma=   0.177
 Maximum number of real-space cells 3x 3x 3
 Maximum number of reciprocal cells 3x 3x 3

    FEWALD:  cpu time    0.0007: real time    0.0007


--------------------------------------- Iteration      1(   1)  ---------------------------------------


    POTLOK:  cpu time    1.5896: real time    1.5936
    SETDIJ:  cpu time    0.0064: real time    0.0064
     EDDAV:  cpu time    0.4120: real time    0.4130
       DOS:  cpu time    0.0001: real time    0.0001
    --------------------------------------------
      LOOP:  cpu time    2.0082: real time    2.0132

 eigenvalue-minimisations  :    16
 total energy-change (2. order) : 0.5658623E+02  (-0.1429877E+03)
 number of electron       8.0000000 magnetization 
 augmentation part        8.0000000 magnetization 

 Free energy of the ion-electron system (eV)
  ---------------------------------------------------
  alpha Z        PSCENC =         0.24184663
  Ewald energy   TEWEN  =       130.72471673
  -Hartree energ DENC   =      -245.05604419
  -exchange      EXHF   =         0.00000000
  -V(xc)+E(xc)   XCENC  =        22.05583456
  PAW double counting   =       117.05815612     -117.66307307
  entropy T*S    EENTRO =        -0.00000000
  eigenvalues    EBANDS =       -47.81695880
  atomic energy  EATOM  =       197.04175453
  Solvation  Ediel_sol  =         0.00000000
  ---------------------------------------------------
  free energy    TOTEN  =        56.58623252 eV

  energy without entropy =       56.58623252  energy(sigma->0) =       56.58623252


--------------------------------------------------------------------------------------------------------




--------------------------------------- Iteration      1(   2)  ---------------------------------------


     EDDAV:  cpu time    0.5535: real time    0.5549
       DOS:  cpu time    0.0001: real time    0.0001
    --------------------------------------------
      LOOP:  cpu time    0.5536: real time    0.5550

 eigenvalue-minimisations  :    24
 total energy-change (2. order) :-0.6619285E+02  (-0.6619285E+02)
 number of electron       8.0000000 magnetization 
 augmentation part        8.0000000 magnetization 

 Free energy of the ion-electron system (eV)
  ---------------------------------------------------
  alpha Z        PSCENC =         0.24184663
  Ewald energy   TEWEN  =       130.72471673
  -Hartree energ DENC   =      -245.05604419
  -exchange      EXHF   =         0.00000000
  -V(xc)+E(xc)   XCENC  =        22.05583456
  PAW double counting   =       117.05815612     -117.66307307
  entropy T*S    EENTRO =        -0.00000000
  eigenvalues    EBANDS =      -114.00981150
  atomic energy  EATOM  =       197.04175453
  Solvation  Ediel_sol  =         0.00000000
  ---------------------------------------------------
  free energy    TOTEN  =        -9.60662018 eV

  energy without entropy =       -9.60662018  energy(sigma->0) =       -9.60662018


--------------------------------------------------------------------------------------------------------




--------------------------------------- Iteration      1(   3)  ---------------------------------------


     EDDAV:  cpu time    0.4090: real time    0.4100
       DOS:  cpu time    0.0001: real time    0.0001
    --------------------------------------------
      LOOP:  cpu time    0.4091: real time    0.4101

 eigenvalue-minimisations  :    16
 total energy-change (2. order) :-0.1696277E+02  (-0.1696277E+02)
 number of electron       8.0000000 magnetization 
 augmentation part        8.0000000 magnetization 

 Free energy of the ion-electron system (eV)
  ---------------------------------------------------
  alpha Z        PSCENC =         0.24184663
  Ewald energy   TEWEN  =       130.72471673
  -Hartree energ DENC   =      -245.05604419
  -exchange      EXHF   =         0.00000000
  -V(xc)+E(xc)   XCENC  =        22.05583456
  PAW double counting   =       117.05815612     -117.66307307
  entropy T*S    EENTRO =        -0.00000000
  eigenvalues    EBANDS =      -130.97258380
  atomic energy  EATOM  =       197.04175453
  Solvation  Ediel_sol  =         0.00000000
  ---------------------------------------------------
  free energy    TOTEN  =       -26.56939248 eV

  energy without entropy =      -26.56939248  energy(sigma->0) =      -26.56939248


--------------------------------------------------------------------------------------------------------




--------------------------------------- Iteration      1(   4)  ---------------------------------------


     EDDAV:  cpu time    0.7417: real time    0.7435
       DOS:  cpu time    0.0001: real time    0.0001
    --------------------------------------------
      LOOP:  cpu time    0.7418: real time    0.7436

 eigenvalue-minimisations  :    32
 total energy-change (2. order) :-0.9593730E+00  (-0.9593730E+00)
 number of electron       8.0000000 magnetization 
 augmentation part        8.0000000 magnetization 

 Free energy of the ion-electron system (eV)
  ---------------------------------------------------
  alpha Z        PSCENC =         0.24184663
  Ewald energy   TEWEN  =       130.72471673
  -Hartree energ DENC   =      -245.05604419
  -exchange      EXHF   =         0.00000000
  -V(xc)+E(xc)   XCENC  =        22.05583456
  PAW double counting   =       117.05815612     -117.66307307
  entropy T*S    EENTRO =        -0.00000000
  eigenvalues    EBANDS =      -131.93195679
  atomic energy  EATOM  =       197.04175453
  Solvation  Ediel_sol  =         0.00000000
  ---------------------------------------------------
  free energy    TOTEN  =       -27.52876547 eV

  energy without entropy =      -27.52876547  energy(sigma->0) =      -27.52876547


--------------------------------------------------------------------------------------------------------




--------------------------------------- Iteration      1(   5)  ---------------------------------------


     EDDAV:  cpu time    0.7260: real time    0.7277
       DOS:  cpu time    0.0001: real time    0.0001
    CHARGE:  cpu time    0.0877: real time    0.0879
    MIXING:  cpu time    0.0333: real time    0.0334
    --------------------------------------------
      LOOP:  cpu time    0.8471: real time    0.8491

 eigenvalue-minimisations  :    32
 total energy-change (2. order) :-0.5774551E-03  (-0.5774551E-03)
 number of electron       8.0000004 magnetization 
 augmentation part        0.2282259 magnetization 

 Broyden mixing:
  rms(total) = 0.88547E+00    rms(broyden)= 0.88527E+00
  rms(prec ) = 0.12496E+01
  weight for this iteration     100.00

 Free energy of the ion-electron system (eV)
  ---------------------------------------------------
  alpha Z        PSCENC =         0.24184663
  Ewald energy   TEWEN  =       130.72471673
  -Hartree energ DENC   =      -245.05604419
  -exchange      EXHF   =         0.00000000
  -V(xc)+E(xc)   XCENC  =        22.05583456
  PAW double counting   =       117.05815612     -117.66307307
  entropy T*S    EENTRO =        -0.00000000
  eigenvalues    EBANDS =      -131.93253425
  atomic energy  EATOM  =       197.04175453
  Solvation  Ediel_sol  =         0.00000000
  ---------------------------------------------------
  free energy    TOTEN  =       -27.52934293 eV

  energy without entropy =      -27.52934293  energy(sigma->0) =      -27.52934293


--------------------------------------------------------------------------------------------------------




--------------------------------------- Iteration      1(   6)  ---------------------------------------


    POTLOK:  cpu time    1.6273: real time    1.6312
    SETDIJ:  cpu time    0.0065: real time    0.0065
     EDDAV:  cpu time    0.5680: real time    0.5694
       DOS:  cpu time    0.0001: real time    0.0001
    CHARGE:  cpu time    0.0825: real time    0.0827
    MIXING:  cpu time    0.0340: real time    0.0341
    --------------------------------------------
      LOOP:  cpu time    2.3184: real time    2.3239

 eigenvalue-minimisations  :    24
 total energy-change (2. order) : 0.2975369E+01  (-0.9043424E+00)
 number of electron       8.0000004 magnetization 
 augmentation part        0.1996972 magnetization 

 Broyden mixing:
  rms(total) = 0.45120E+00    rms(broyden)= 0.45111E+00
  rms(prec ) = 0.56550E+00
  weight for this iteration     100.00

 eigenvalues of (default mixing * dielectric matrix)
  average eigenvalue GAMMA=   1.2012
  1.2012

 Free energy of the ion-electron system (eV)
  ---------------------------------------------------
  alpha Z        PSCENC =         0.24184663
  Ewald energy   TEWEN  =       130.72471673
  -Hartree energ DENC   =      -265.08571367
  -exchange      EXHF   =         0.00000000
  -V(xc)+E(xc)   XCENC  =        23.26938656
  PAW double counting   =       241.15660057     -241.94090664
  entropy T*S    EENTRO =        -0.00000000
  eigenvalues    EBANDS =      -109.96165880
  atomic energy  EATOM  =       197.04175453
  Solvation  Ediel_sol  =         0.00000000
  ---------------------------------------------------
  free energy    TOTEN  =       -24.55397410 eV

  energy without entropy =      -24.55397410  energy(sigma->0) =      -24.55397410


--------------------------------------------------------------------------------------------------------




--------------------------------------- Iteration      1(   7)  ---------------------------------------


    POTLOK:  cpu time    1.6374: real time    1.6413
    SETDIJ:  cpu time    0.0065: real time    0.0066
     EDDAV:  cpu time    0.7518: real time    0.7536
       DOS:  cpu time    0.0001: real time    0.0001
    CHARGE:  cpu time    0.0857: real time    0.0860
    MIXING:  cpu time    0.0354: real time    0.0355
    --------------------------------------------
      LOOP:  cpu time    2.5170: real time    2.5230

 eigenvalue-minimisations  :    32
 total energy-change (2. order) : 0.4957392E+00  (-0.7803313E-01)
 number of electron       8.0000004 magnetization 
 augmentation part        0.1909955 magnetization 

 Broyden mixing:
  rms(total) = 0.22993E+00    rms(broyden)= 0.22989E+00
  rms(prec ) = 0.28204E+00
  weight for this iteration     100.00

 eigenvalues of (default mixing * dielectric matrix)
  average eigenvalue GAMMA=   1.6970
  1.2583  2.1356

 Free energy of the ion-electron system (eV)
  ---------------------------------------------------
  alpha Z        PSCENC =         0.24184663
  Ewald energy   TEWEN  =       130.72471673
  -Hartree energ DENC   =      -275.37352429
  -exchange      EXHF   =         0.00000000
  -V(xc)+E(xc)   XCENC  =        24.04031535
  PAW double counting   =       373.03429544     -373.84834704
  entropy T*S    EENTRO =        -0.00000000
  eigenvalues    EBANDS =       -99.91929223
  atomic energy  EATOM  =       197.04175453
  Solvation  Ediel_sol  =         0.00000000
  ---------------------------------------------------
  free energy    TOTEN  =       -24.05823488 eV

  energy without entropy =      -24.05823488  energy(sigma->0) =      -24.05823488


--------------------------------------------------------------------------------------------------------




--------------------------------------- Iteration      1(   8)  ---------------------------------------


    POTLOK:  cpu time    1.6391: real time    1.6430
    SETDIJ:  cpu time    0.0064: real time    0.0064
     EDDAV:  cpu time    0.5855: real time    0.5869
       DOS:  cpu time    0.0001: real time    0.0001
    CHARGE:  cpu time    0.0892: real time    0.0894
    MIXING:  cpu time    0.0360: real time    0.0360
    --------------------------------------------
      LOOP:  cpu time    2.3564: real time    2.3620

 eigenvalue-minimisations  :    24
 total energy-change (2. order) : 0.1647702E+00  (-0.1856685E-01)
 number of electron       8.0000004 magnetization 
 augmentation part        0.1883847 magnetization 

 Broyden mixing:
  rms(total) = 0.27133E-01    rms(broyden)= 0.27107E-01
  rms(prec ) = 0.55721E-01
  weight for this iteration     100.00

 eigenvalues of (default mixing * dielectric matrix)
  average eigenvalue GAMMA=   1.5399
  2.1504  1.0998  1.3694

 Free energy of the ion-electron system (eV)
  ---------------------------------------------------
  alpha Z        PSCENC =         0.24184663
  Ewald energy   TEWEN  =       130.72471673
  -Hartree energ DENC   =      -282.39356468
  -exchange      EXHF   =         0.00000000
  -V(xc)+E(xc)   XCENC  =        24.66613935
  PAW double counting   =       489.33305617     -490.13252608
  entropy T*S    EENTRO =        -0.00000000
  eigenvalues    EBANDS =       -93.37488731
  atomic energy  EATOM  =       197.04175453
  Solvation  Ediel_sol  =         0.00000000
  ---------------------------------------------------
  free energy    TOTEN  =       -23.89346465 eV

  energy without entropy =      -23.89346465  energy(sigma->0) =      -23.89346465


--------------------------------------------------------------------------------------------------------




--------------------------------------- Iteration      1(   9)  ---------------------------------------


    POTLOK:  cpu time    1.6227: real time    1.6265
    SETDIJ:  cpu time    0.0064: real time    0.0064
     EDDAV:  cpu time    0.7564: real time    0.7582
       DOS:  cpu time    0.0001: real time    0.0001
    CHARGE:  cpu time    0.0867: real time    0.0869
    MIXING:  cpu time    0.0365: real time    0.0366
    --------------------------------------------
      LOOP:  cpu time    2.5087: real time    2.5147

 eigenvalue-minimisations  :    32
 total energy-change (2. order) : 0.6947580E-02  (-0.3474931E-03)
 number of electron       8.0000004 magnetization 
 augmentation part        0.1878485 magnetization 

 Broyden mixing:
  rms(total) = 0.17218E-01    rms(broyden)= 0.17215E-01
  rms(prec ) = 0.37811E-01
  weight for this iteration     100.00

 eigenvalues of (default mixing * dielectric matrix)
  average eigenvalue GAMMA=   1.8985
  2.9739  2.4449  1.2087  0.9665

 Free energy of the ion-electron system (eV)
  ---------------------------------------------------
  alpha Z        PSCENC =         0.24184663
  Ewald energy   TEWEN  =       130.72471673
  -Hartree energ DENC   =      -283.69970134
  -exchange      EXHF   =         0.00000000
  -V(xc)+E(xc)   XCENC  =        24.73662369
  PAW double counting   =       487.87626306     -488.67373125
  entropy T*S    EENTRO =        -0.00000000
  eigenvalues    EBANDS =       -92.13428914
  atomic energy  EATOM  =       197.04175453
  Solvation  Ediel_sol  =         0.00000000
  ---------------------------------------------------
  free energy    TOTEN  =       -23.88651707 eV

  energy without entropy =      -23.88651707  energy(sigma->0) =      -23.88651707


--------------------------------------------------------------------------------------------------------




--------------------------------------- Iteration      1(  10)  ---------------------------------------


    POTLOK:  cpu time    1.5512: real time    1.5549
    SETDIJ:  cpu time    0.0065: real time    0.0065
     EDDAV:  cpu time    0.4280: real time    0.4290
       DOS:  cpu time    0.0001: real time    0.0001
    CHARGE:  cpu time    0.0881: real time    0.0883
    MIXING:  cpu time    0.0377: real time    0.0378
    --------------------------------------------
      LOOP:  cpu time    2.1116: real time    2.1166

 eigenvalue-minimisations  :    16
 total energy-change (2. order) : 0.9270388E-02  (-0.5917599E-03)
 number of electron       8.0000004 magnetization 
 augmentation part        0.1876350 magnetization 

 Broyden mixing:
  rms(total) = 0.72560E-02    rms(broyden)= 0.72548E-02
  rms(prec ) = 0.16642E-01
  weight for this iteration     100.00

 eigenvalues of (default mixing * dielectric matrix)
  average eigenvalue GAMMA=   1.8549
  3.0121  0.9910  1.2105  1.9130  2.1479

 Free energy of the ion-electron system (eV)
  ---------------------------------------------------
  alpha Z        PSCENC =         0.24184663
  Ewald energy   TEWEN  =       130.72471673
  -Hartree energ DENC   =      -285.39692939
  -exchange      EXHF   =         0.00000000
  -V(xc)+E(xc)   XCENC  =        24.81178864
  PAW double counting   =       477.73396358     -478.52703289
  entropy T*S    EENTRO =        -0.00000000
  eigenvalues    EBANDS =       -90.50735452
  atomic energy  EATOM  =       197.04175453
  Solvation  Ediel_sol  =         0.00000000
  ---------------------------------------------------
  free energy    TOTEN  =       -23.87724669 eV

  energy without entropy =      -23.87724669  energy(sigma->0) =      -23.87724669


--------------------------------------------------------------------------------------------------------




--------------------------------------- Iteration      1(  11)  ---------------------------------------


    POTLOK:  cpu time    1.4797: real time    1.4832
    SETDIJ:  cpu time    0.0064: real time    0.0064
     EDDAV:  cpu time    0.4106: real time    0.4116
       DOS:  cpu time    0.0001: real time    0.0001
    CHARGE:  cpu time    0.0854: real time    0.0856
    MIXING:  cpu time    0.0357: real time    0.0358
    --------------------------------------------
      LOOP:  cpu time    2.0179: real time    2.0227

 eigenvalue-minimisations  :    16
 total energy-change (2. order) :-0.7501037E-02  (-0.2955989E-03)
 number of electron       8.0000004 magnetization 
 augmentation part        0.1872864 magnetization 

 Broyden mixing:
  rms(total) = 0.64399E-02    rms(broyden)= 0.64393E-02
  rms(prec ) = 0.10876E-01
  weight for this iteration     100.00

 eigenvalues of (default mixing * dielectric matrix)
  average eigenvalue GAMMA=   2.1206
  4.4269  2.8639  2.2315  1.2339  0.9837  0.9837

 Free energy of the ion-electron system (eV)
  ---------------------------------------------------
  alpha Z        PSCENC =         0.24184663
  Ewald energy   TEWEN  =       130.72471673
  -Hartree energ DENC   =      -286.23560633
  -exchange      EXHF   =         0.00000000
  -V(xc)+E(xc)   XCENC  =        24.84671203
  PAW double counting   =       481.56700241     -482.36160516
  entropy T*S    EENTRO =        -0.00000000
  eigenvalues    EBANDS =       -89.70956856
  atomic energy  EATOM  =       197.04175453
  Solvation  Ediel_sol  =         0.00000000
  ---------------------------------------------------
  free energy    TOTEN  =       -23.88474772 eV

  energy without entropy =      -23.88474772  energy(sigma->0) =      -23.88474772


--------------------------------------------------------------------------------------------------------




--------------------------------------- Iteration      1(  12)  ---------------------------------------


    POTLOK:  cpu time    1.4286: real time    1.4320
    SETDIJ:  cpu time    0.0064: real time    0.0064
     EDDAV:  cpu time    0.7511: real time    0.7529
       DOS:  cpu time    0.0001: real time    0.0001
    CHARGE:  cpu time    0.0870: real time    0.0872
    MIXING:  cpu time    0.0380: real time    0.0381
    --------------------------------------------
      LOOP:  cpu time    2.3112: real time    2.3167

 eigenvalue-minimisations  :    32
 total energy-change (2. order) :-0.3767028E-02  (-0.5670580E-04)
 number of electron       8.0000004 magnetization 
 augmentation part        0.1873712 magnetization 

 Broyden mixing:
  rms(total) = 0.23457E-02    rms(broyden)= 0.23456E-02
  rms(prec ) = 0.51270E-02
  weight for this iteration     100.00

 eigenvalues of (default mixing * dielectric matrix)
  average eigenvalue GAMMA=   2.2774
  4.9623  3.0435  2.6738  2.0075  1.2284  1.0131  1.0131

 Free energy of the ion-electron system (eV)
  ---------------------------------------------------
  alpha Z        PSCENC =         0.24184663
  Ewald energy   TEWEN  =       130.72471673
  -Hartree energ DENC   =      -286.11218272
  -exchange      EXHF   =         0.00000000
  -V(xc)+E(xc)   XCENC  =        24.82402878
  PAW double counting   =       477.39217320     -478.18647825
  entropy T*S    EENTRO =        -0.00000000
  eigenvalues    EBANDS =       -89.81437365
  atomic energy  EATOM  =       197.04175453
  Solvation  Ediel_sol  =         0.00000000
  ---------------------------------------------------
  free energy    TOTEN  =       -23.88851475 eV

  energy without entropy =      -23.88851475  energy(sigma->0) =      -23.88851475


--------------------------------------------------------------------------------------------------------




--------------------------------------- Iteration      1(  13)  ---------------------------------------


    POTLOK:  cpu time    1.3963: real time    1.3996
    SETDIJ:  cpu time    0.0064: real time    0.0064
     EDDAV:  cpu time    0.4198: real time    0.4208
       DOS:  cpu time    0.0001: real time    0.0001
    CHARGE:  cpu time    0.0883: real time    0.0885
    MIXING:  cpu time    0.0386: real time    0.0387
    --------------------------------------------
      LOOP:  cpu time    1.9495: real time    1.9542

 eigenvalue-minimisations  :    16
 total energy-change (2. order) :-0.4045552E-02  (-0.9104685E-04)
 number of electron       8.0000004 magnetization 
 augmentation part        0.1873933 magnetization 

 Broyden mixing:
  rms(total) = 0.26676E-02    rms(broyden)= 0.26674E-02
  rms(prec ) = 0.35793E-02
  weight for this iteration     100.00

 eigenvalues of (default mixing * dielectric matrix)
  average eigenvalue GAMMA=   2.3099
  5.8367  3.6300  2.5155  2.1935  1.2789  1.0391  1.0391  0.9465

 Free energy of the ion-electron system (eV)
  ---------------------------------------------------
  alpha Z        PSCENC =         0.24184663
  Ewald energy   TEWEN  =       130.72471673
  -Hartree energ DENC   =      -286.15142817
  -exchange      EXHF   =         0.00000000
  -V(xc)+E(xc)   XCENC  =        24.82218241
  PAW double counting   =       479.31336289     -480.10657434
  entropy T*S    EENTRO =        -0.00000000
  eigenvalues    EBANDS =       -89.77842100
  atomic energy  EATOM  =       197.04175453
  Solvation  Ediel_sol  =         0.00000000
  ---------------------------------------------------
  free energy    TOTEN  =       -23.89256030 eV

  energy without entropy =      -23.89256030  energy(sigma->0) =      -23.89256030


--------------------------------------------------------------------------------------------------------




--------------------------------------- Iteration      1(  14)  ---------------------------------------


    POTLOK:  cpu time    1.3762: real time    1.3795
    SETDIJ:  cpu time    0.0064: real time    0.0064
     EDDAV:  cpu time    0.7498: real time    0.7515
       DOS:  cpu time    0.0001: real time    0.0001
    CHARGE:  cpu time    0.0834: real time    0.0836
    MIXING:  cpu time    0.0394: real time    0.0395
    --------------------------------------------
      LOOP:  cpu time    2.2554: real time    2.2607

 eigenvalue-minimisations  :    32
 total energy-change (2. order) :-0.6949812E-03  (-0.1129616E-04)
 number of electron       8.0000004 magnetization 
 augmentation part        0.1873439 magnetization 

 Broyden mixing:
  rms(total) = 0.75999E-03    rms(broyden)= 0.75973E-03
  rms(prec ) = 0.14746E-02
  weight for this iteration     100.00

 eigenvalues of (default mixing * dielectric matrix)
  average eigenvalue GAMMA=   2.5055
  6.8455  4.2079  2.8506  2.4221  1.8358  1.3054  1.0082  1.0369  1.0369

 Free energy of the ion-electron system (eV)
  ---------------------------------------------------
  alpha Z        PSCENC =         0.24184663
  Ewald energy   TEWEN  =       130.72471673
  -Hartree energ DENC   =      -286.12710670
  -exchange      EXHF   =         0.00000000
  -V(xc)+E(xc)   XCENC  =        24.81719908
  PAW double counting   =       478.35143027     -479.14522953
  entropy T*S    EENTRO =        -0.00000000
  eigenvalues    EBANDS =       -89.79786629
  atomic energy  EATOM  =       197.04175453
  Solvation  Ediel_sol  =         0.00000000
  ---------------------------------------------------
  free energy    TOTEN  =       -23.89325528 eV

  energy without entropy =      -23.89325528  energy(sigma->0) =      -23.89325528


--------------------------------------------------------------------------------------------------------




--------------------------------------- Iteration      1(  15)  ---------------------------------------


    POTLOK:  cpu time    1.3852: real time    1.3885
    SETDIJ:  cpu time    0.0064: real time    0.0064
     EDDAV:  cpu time    0.4196: real time    0.4206
       DOS:  cpu time    0.0001: real time    0.0001
    CHARGE:  cpu time    0.0858: real time    0.0860
    MIXING:  cpu time    0.0409: real time    0.0410
    --------------------------------------------
      LOOP:  cpu time    1.9379: real time    1.9425

 eigenvalue-minimisations  :    16
 total energy-change (2. order) :-0.5027995E-03  (-0.5556872E-05)
 number of electron       8.0000004 magnetization 
 augmentation part        0.1873686 magnetization 

 Broyden mixing:
  rms(total) = 0.62379E-03    rms(broyden)= 0.62377E-03
  rms(prec ) = 0.84396E-03
  weight for this iteration     100.00

 eigenvalues of (default mixing * dielectric matrix)
  average eigenvalue GAMMA=   2.4876
  7.3330  4.5870  2.8442  2.4394  2.1687  1.2147  1.2147  0.9865  1.0440  1.0440

 Free energy of the ion-electron system (eV)
  ---------------------------------------------------
  alpha Z        PSCENC =         0.24184663
  Ewald energy   TEWEN  =       130.72471673
  -Hartree energ DENC   =      -286.10445465
  -exchange      EXHF   =         0.00000000
  -V(xc)+E(xc)   XCENC  =        24.81520113
  PAW double counting   =       477.79439697     -478.58802886
  entropy T*S    EENTRO =        -0.00000000
  eigenvalues    EBANDS =       -89.81919055
  atomic energy  EATOM  =       197.04175453
  Solvation  Ediel_sol  =         0.00000000
  ---------------------------------------------------
  free energy    TOTEN  =       -23.89375808 eV

  energy without entropy =      -23.89375808  energy(sigma->0) =      -23.89375808


--------------------------------------------------------------------------------------------------------




--------------------------------------- Iteration      1(  16)  ---------------------------------------


    POTLOK:  cpu time    1.3948: real time    1.3981
    SETDIJ:  cpu time    0.0064: real time    0.0064
     EDDAV:  cpu time    0.7558: real time    0.7576
       DOS:  cpu time    0.0001: real time    0.0001
    CHARGE:  cpu time    0.0876: real time    0.0878
    MIXING:  cpu time    0.0440: real time    0.0441
    --------------------------------------------
      LOOP:  cpu time    2.2888: real time    2.2942

 eigenvalue-minimisations  :    32
 total energy-change (2. order) :-0.6668466E-04  (-0.4400792E-06)
 number of electron       8.0000004 magnetization 
 augmentation part        0.1873553 magnetization 

 Broyden mixing:
  rms(total) = 0.16144E-03    rms(broyden)= 0.16141E-03
  rms(prec ) = 0.29631E-03
  weight for this iteration     100.00

 eigenvalues of (default mixing * dielectric matrix)
  average eigenvalue GAMMA=   2.5908
  7.8749  4.6679  3.4981  2.8461  2.3401  1.9570  1.2936  1.0932  0.9894  0.9894
  0.9486

 Free energy of the ion-electron system (eV)
  ---------------------------------------------------
  alpha Z        PSCENC =         0.24184663
  Ewald energy   TEWEN  =       130.72471673
  -Hartree energ DENC   =      -286.12688459
  -exchange      EXHF   =         0.00000000
  -V(xc)+E(xc)   XCENC  =        24.81668697
  PAW double counting   =       478.05603512     -478.84979832
  entropy T*S    EENTRO =        -0.00000000
  eigenvalues    EBANDS =       -89.79818183
  atomic energy  EATOM  =       197.04175453
  Solvation  Ediel_sol  =         0.00000000
  ---------------------------------------------------
  free energy    TOTEN  =       -23.89382477 eV

  energy without entropy =      -23.89382477  energy(sigma->0) =      -23.89382477


--------------------------------------------------------------------------------------------------------




--------------------------------------- Iteration      1(  17)  ---------------------------------------


    POTLOK:  cpu time    1.4804: real time    1.4841
    SETDIJ:  cpu time    0.0065: real time    0.0065
     EDDAV:  cpu time    0.4158: real time    0.4167
       DOS:  cpu time    0.0001: real time    0.0001
    CHARGE:  cpu time    0.0855: real time    0.0857
    MIXING:  cpu time    0.0427: real time    0.0428
    --------------------------------------------
      LOOP:  cpu time    2.0309: real time    2.0358

 eigenvalue-minimisations  :    16
 total energy-change (2. order) :-0.5339539E-04  (-0.2932962E-06)
 number of electron       8.0000004 magnetization 
 augmentation part        0.1873499 magnetization 

 Broyden mixing:
  rms(total) = 0.13828E-03    rms(broyden)= 0.13826E-03
  rms(prec ) = 0.19965E-03
  weight for this iteration     100.00

 eigenvalues of (default mixing * dielectric matrix)
  average eigenvalue GAMMA=   2.5624
  8.3769  5.1751  3.7305  2.6373  2.3274  1.9814  1.2675  1.2675  1.0394  1.0394
  0.9692  0.9377

 Free energy of the ion-electron system (eV)
  ---------------------------------------------------
  alpha Z        PSCENC =         0.24184663
  Ewald energy   TEWEN  =       130.72471673
  -Hartree energ DENC   =      -286.13791986
  -exchange      EXHF   =         0.00000000
  -V(xc)+E(xc)   XCENC  =        24.81717242
  PAW double counting   =       478.08486717     -478.87866714
  entropy T*S    EENTRO =        -0.00000000
  eigenvalues    EBANDS =       -89.78764864
  atomic energy  EATOM  =       197.04175453
  Solvation  Ediel_sol  =         0.00000000
  ---------------------------------------------------
  free energy    TOTEN  =       -23.89387816 eV

  energy without entropy =      -23.89387816  energy(sigma->0) =      -23.89387816


--------------------------------------------------------------------------------------------------------




--------------------------------------- Iteration      1(  18)  ---------------------------------------


    POTLOK:  cpu time    1.4792: real time    1.4827
    SETDIJ:  cpu time    0.0064: real time    0.0064
     EDDAV:  cpu time    0.7499: real time    0.7517
       DOS:  cpu time    0.0001: real time    0.0001
    CHARGE:  cpu time    0.0844: real time    0.0846
    MIXING:  cpu time    0.0437: real time    0.0438
    --------------------------------------------
      LOOP:  cpu time    2.3637: real time    2.3693

 eigenvalue-minimisations  :    32
 total energy-change (2. order) :-0.2677594E-05  (-0.4754100E-07)
 number of electron       8.0000004 magnetization 
 augmentation part        0.1873565 magnetization 

 Broyden mixing:
  rms(total) = 0.39690E-04    rms(broyden)= 0.39657E-04
  rms(prec ) = 0.66916E-04
  weight for this iteration     100.00

 eigenvalues of (default mixing * dielectric matrix)
  average eigenvalue GAMMA=   2.6055
  8.4837  5.3334  3.8724  2.6373  2.6373  2.3720  2.0368  1.2774  1.2192  0.9852
  0.9852  1.0156  1.0156

 Free energy of the ion-electron system (eV)
  ---------------------------------------------------
  alpha Z        PSCENC =         0.24184663
  Ewald energy   TEWEN  =       130.72471673
  -Hartree energ DENC   =      -286.13322975
  -exchange      EXHF   =         0.00000000
  -V(xc)+E(xc)   XCENC  =        24.81694127
  PAW double counting   =       478.07782463     -478.87157480
  entropy T*S    EENTRO =        -0.00000000
  eigenvalues    EBANDS =       -89.79216008
  atomic energy  EATOM  =       197.04175453
  Solvation  Ediel_sol  =         0.00000000
  ---------------------------------------------------
  free energy    TOTEN  =       -23.89388084 eV

  energy without entropy =      -23.89388084  energy(sigma->0) =      -23.89388084


--------------------------------------------------------------------------------------------------------




--------------------------------------- Iteration      1(  19)  ---------------------------------------


    POTLOK:  cpu time    1.5381: real time    1.5417
    SETDIJ:  cpu time    0.0064: real time    0.0064
     EDDAV:  cpu time    0.4121: real time    0.4131
       DOS:  cpu time    0.0001: real time    0.0001
    CHARGE:  cpu time    0.0828: real time    0.0830
    MIXING:  cpu time    0.0451: real time    0.0452
    --------------------------------------------
      LOOP:  cpu time    2.0847: real time    2.0896

 eigenvalue-minimisations  :    16
 total energy-change (2. order) :-0.4629809E-05  (-0.1536155E-07)
 number of electron       8.0000004 magnetization 
 augmentation part        0.1873566 magnetization 

 Broyden mixing:
  rms(total) = 0.17831E-04    rms(broyden)= 0.17827E-04
  rms(prec ) = 0.29317E-04
  weight for this iteration     100.00

 eigenvalues of (default mixing * dielectric matrix)
  average eigenvalue GAMMA=   2.5258
  8.5464  5.3856  4.0824  3.0984  2.5573  2.2638  1.8081  1.3277  1.3277  1.0366
  1.0366  0.9759  0.9573  0.9573

 Free energy of the ion-electron system (eV)
  ---------------------------------------------------
  alpha Z        PSCENC =         0.24184663
  Ewald energy   TEWEN  =       130.72471673
  -Hartree energ DENC   =      -286.13246019
  -exchange      EXHF   =         0.00000000
  -V(xc)+E(xc)   XCENC  =        24.81684602
  PAW double counting   =       478.08842081     -478.88216575
  entropy T*S    EENTRO =        -0.00000000
  eigenvalues    EBANDS =       -89.79284425
  atomic energy  EATOM  =       197.04175453
  Solvation  Ediel_sol  =         0.00000000
  ---------------------------------------------------
  free energy    TOTEN  =       -23.89388547 eV

  energy without entropy =      -23.89388547  energy(sigma->0) =      -23.89388547


--------------------------------------------------------------------------------------------------------




--------------------------------------- Iteration      1(  20)  ---------------------------------------


    POTLOK:  cpu time    1.5520: real time    1.5557
    SETDIJ:  cpu time    0.0064: real time    0.0064
     EDDAV:  cpu time    0.7298: real time    0.7315
       DOS:  cpu time    0.0001: real time    0.0001
    --------------------------------------------
      LOOP:  cpu time    2.2883: real time    2.2937

 eigenvalue-minimisations  :    32
 total energy-change (2. order) :-0.3119199E-06  (-0.1309292E-08)
 number of electron       8.0000004 magnetization 
 augmentation part        0.1873566 magnetization 

 Free energy of the ion-electron system (eV)
  ---------------------------------------------------
  alpha Z        PSCENC =         0.24184663
  Ewald energy   TEWEN  =       130.72471673
  -Hartree energ DENC   =      -286.13289799
  -exchange      EXHF   =         0.00000000
  -V(xc)+E(xc)   XCENC  =        24.81686762
  PAW double counting   =       478.09293551     -478.88668395
  entropy T*S    EENTRO =        -0.00000000
  eigenvalues    EBANDS =       -89.79242488
  atomic energy  EATOM  =       197.04175453
  Solvation  Ediel_sol  =         0.00000000
  ---------------------------------------------------
  free energy    TOTEN  =       -23.89388578 eV

  energy without entropy =      -23.89388578  energy(sigma->0) =      -23.89388578


--------------------------------------------------------------------------------------------------------




 average (electrostatic) potential at core
  the test charge radii are     0.5201  0.6991
  (the norm of the test charge is              1.0000)
       1 -41.5354       2 -41.7667       3 -41.6874       4 -41.3085       5 -57.9293



 E-fermi :  -8.4080     XC(G=0):  -0.6979     alpha+bet : -0.2103


 k-point     1 :       0.0000    0.0000    0.0000
  band No.  band energies     occupation 
      1     -16.9668      2.00000
      2      -9.9058      2.00000
      3      -9.3631      2.00000
      4      -8.6606      2.00000
      5      -0.5275      0.00000
      6       0.9920      0.00000
      7       0.9971      0.00000
      8       1.0683      0.00000


--------------------------------------------------------------------------------------------------------


 soft charge-density along one line, spin component           1
         0         1         2         3         4         5         6         7         8         9
 total charge-density along one line

 pseudopotential strength for first ion, spin component:           1
 -2.341  -4.035  -0.001   0.000   0.002
 -4.035  -6.867  -0.002   0.001   0.005
 -0.001  -0.002  -0.338  -0.000  -0.002
  0.000   0.001  -0.000  -0.339   0.001
  0.002   0.005  -0.002   0.001  -0.334
 total augmentation occupancy for first ion, spin component:           1
  3.543  -0.639   0.161  -0.079  -0.392
 -0.639   0.130  -0.027   0.015   0.074
  0.161  -0.027   0.016  -0.002  -0.014
 -0.079   0.015  -0.002   0.011   0.008
 -0.392   0.074  -0.014   0.008   0.046


------------------------ aborting loop because EDIFF is reached ----------------------------------------


    CHARGE:  cpu time    0.0834: real time    0.0836
    FORLOC:  cpu time    0.1053: real time    0.1056
    FORNL :  cpu time    0.1292: real time    0.1295
    STRESS:  cpu time    0.5044: real time    0.5056
    FORCOR:  cpu time    1.5635: real time    1.5672
    FORHAR:  cpu time    0.5065: real time    0.5077
    MIXING:  cpu time    0.0464: real time    0.0465
    OFIELD:  cpu time    0.0000: real time    0.0000

  FORCE on cell =-STRESS in cart. coord.  units (eV):
  Direction    XX          YY          ZZ          XY          YZ          ZX
  --------------------------------------------------------------------------------------
  Alpha Z     0.24185     0.24185     0.24185
  Ewald      33.36385    52.20547    45.15535   -10.97225    -1.32552    -1.23467
  Hartree    91.05994    98.48566    96.58697    -2.68502     0.21868    -0.01368
  E(xc)     -27.32597   -27.24446   -27.29862    -0.05340     0.00100     0.00169
  Local    -184.60119  -208.07358  -200.12942    11.47281     0.52413     0.77083
  n-local   -16.09152   -16.02442   -16.11467    -0.00897     0.00172     0.02660
  augment     0.12205     0.10266     0.10735     0.01624     0.00530     0.00463
  Kinetic   103.66086    99.36059   102.03677     2.71713     0.11767     0.12531
  Fock        0.00000     0.00000     0.00000     0.00000     0.00000     0.00000
  -------------------------------------------------------------------------------------
  Total       0.42987    -0.94624     0.58558     0.48655    -0.45702    -0.31929
  in kB       0.68757    -1.51352     0.93663     0.77823    -0.73100    -0.51071
  external pressure =        0.04 kB  Pullay stress =        0.00 kB


 VOLUME and BASIS-vectors are now :
 -----------------------------------------------------------------------------
  energy-cutoff  :      400.00
  volume of cell :     1001.67
      direct lattice vectors                 reciprocal lattice vectors
    10.189528500  0.000000000  0.000000000     0.098139968 -0.000339389  0.000096806
     0.034426400  9.954976200  0.000000000     0.000000000  0.100452274 -0.000870026
    -0.009444900  0.085527000  9.874858000     0.000000000  0.000000000  0.101267279

  length of vectors
    10.189528500  9.955035727  9.875232888     0.098140602  0.100456042  0.101267279


 FORCES acting on ions
    electron-ion (+dipol)            ewald-force                    non-local-force                 convergence-correction
 -----------------------------------------------------------------------------------------------
   -.489E+02 0.185E+02 -.968E+01   0.543E+02 -.198E+02 0.107E+02   -.495E+01 0.217E+01 -.996E+00   -.381E-04 0.290E-04 -.775E-05
   0.480E+01 -.428E+02 0.324E+02   -.505E+01 0.479E+02 -.365E+02   0.636E+00 -.466E+01 0.352E+01   0.135E-04 -.468E-04 0.349E-04
   0.249E+02 -.114E+02 -.466E+02   -.280E+02 0.127E+02 0.524E+02   0.270E+01 -.122E+01 -.506E+01   0.241E-04 -.249E-04 -.526E-04
   0.202E+02 0.426E+02 0.223E+02   -.225E+02 -.462E+02 -.244E+02   0.184E+01 0.430E+01 0.217E+01   0.102E-04 0.477E-04 0.349E-04
   -.115E+01 -.555E+01 0.201E+01   0.125E+01 0.549E+01 -.223E+01   -.587E-01 -.189E+01 -.115E+00   0.300E-04 -.872E-04 0.478E-04
 -----------------------------------------------------------------------------------------------
   -.158E+00 0.129E+01 0.487E+00   0.355E-14 0.000E+00 -.355E-14   0.158E+00 -.129E+01 -.487E+00   0.396E-04 -.821E-04 0.572E-04


 POSITION                                       TOTAL-FORCE (eV/Angst)
 -----------------------------------------------------------------------------------
      6.13389      4.32213      4.58698         0.457152      0.820111      0.041432
      5.03435      5.56590      3.73943         0.387210      0.454680     -0.564455
      4.63723      4.93314      5.31537        -0.414617     -0.006744      0.730388
      4.70562      3.79774      3.91602        -0.470935      0.680103      0.132671
      5.13168      4.71617      4.38843         0.041190     -1.948150     -0.340035
 -----------------------------------------------------------------------------------
    total drift:                               -0.000113     -0.000616      0.000046


--------------------------------------------------------------------------------------------------------



  FREE ENERGIE OF THE ION-ELECTRON SYSTEM (eV)
  ---------------------------------------------------
  free  energy   TOTEN  =       -23.89388578 eV

  energy  without entropy=      -23.89388578  energy(sigma->0) =      -23.89388578



--------------------------------------------------------------------------------------------------------


    POTLOK:  cpu time    1.5037: real time    1.5072


--------------------------------------------------------------------------------------------------------


     LOOP+:  cpu time   42.3536: real time   42.4586
    4ORBIT:  cpu time    0.0000: real time    0.0000

 total amount of memory used by VASP MPI-rank0   274965. kBytes
=======================================================================

   base      :      30000. kBytes
   nonlr-proj:       1230. kBytes
   fftplans  :      86708. kBytes
   grid      :     154683. kBytes
   one-center:         15. kBytes
   wavefun   :       2329. kBytes

  
  
 General timing and accounting informations for this job:
 ========================================================
  
                  Total CPU time used (sec):       44.121
                            User time (sec):       42.764
                          System time (sec):        1.357
                         Elapsed time (sec):       44.236
  
                   Maximum memory used (kb):      390272.
                   Average memory used (kb):           0.
  
                          Minor page faults:       210428
                          Major page faults:            0
                 Voluntary context switches:          145
