ITEM: TIMESTEP
1950
ITEM: NUMBER OF ATOMS
5
ITEM: BOX BOUNDS xy xz yz pp pp pp
-1.4265150000000001e-01 1.0229495999999999e+01 -2.1499700000000000e-02
0.0000000000000000e+00 1.0064592100000000e+01 -1.2115180000000000e-01
0.0000000000000000e+00 9.9861603999999993e+00 6.0197599999999997e-02
ITEM: ATOMS id type x y z 
1 1 5.92489 3.99633 4.53206 
2 1 4.26728 4.20399 4.97369 
3 1 4.85533 4.88631 3.34425 
4 1 5.38183 5.68271 4.94429 
5 2 5.06843 4.71778 4.43087 
