ITEM: TIMESTEP
240
ITEM: NUMBER OF ATOMS
5
ITEM: BOX BOUNDS xy xz yz pp pp pp
-1.4265150000000001e-01 1.0229495999999999e+01 -2.1499700000000000e-02
0.0000000000000000e+00 1.0064592100000000e+01 -1.2115180000000000e-01
0.0000000000000000e+00 9.9861603999999993e+00 6.0197599999999997e-02
ITEM: ATOMS id type x y z 
1 1 5.96745 4.09574 4.49436 
2 1 4.28371 4.21721 5.00217 
3 1 4.75241 4.77566 3.4108 
4 1 5.26033 5.72177 4.74451 
5 2 5.08221 4.71436 4.44274 
