ITEM: TIMESTEP
850
ITEM: NUMBER OF ATOMS
5
ITEM: BOX BOUNDS xy xz yz pp pp pp
-1.4265150000000001e-01 1.0229495999999999e+01 -2.1499700000000000e-02
0.0000000000000000e+00 1.0064592100000000e+01 -1.2115180000000000e-01
0.0000000000000000e+00 9.9861603999999993e+00 6.0197599999999997e-02
ITEM: ATOMS id type x y z 
1 1 5.40482 4.16285 3.53719 
2 1 4.00618 4.88818 4.35077 
3 1 5.58577 5.67726 4.43799 
4 1 5.30615 4.21364 5.39774 
5 2 5.07896 4.7034 4.43675 
