ITEM: TIMESTEP
910
ITEM: NUMBER OF ATOMS
5
ITEM: BOX BOUNDS xy xz yz pp pp pp
-1.4265150000000001e-01 1.0229495999999999e+01 -2.1499700000000000e-02
0.0000000000000000e+00 1.0064592100000000e+01 -1.2115180000000000e-01
0.0000000000000000e+00 9.9861603999999993e+00 6.0197599999999997e-02
ITEM: ATOMS id type x y z 
1 1 5.57562 5.0387 3.52489 
2 1 4.38888 5.46358 4.79267 
3 1 5.83706 4.63434 5.20095 
4 1 4.5976 3.74068 4.27842 
5 2 5.07094 4.70879 4.43065 
