ITEM: TIMESTEP
1560
ITEM: NUMBER OF ATOMS
5
ITEM: BOX BOUNDS xy xz yz pp pp pp
-2.5310610000000000e-01 1.0327702800000001e+01 2.7160859999999998e-01
0.0000000000000000e+00 1.0157631800000001e+01 -2.5310610000000000e-01
0.0000000000000000e+00 1.0036185300000000e+01 1.4269630000000000e-01
ITEM: ATOMS id type x y z 
1 1 5.23856 3.8785 3.83464 
2 1 4.01587 5.03323 4.45464 
3 1 5.64765 5.6074 4.19367 
4 1 5.3678 4.52079 5.47169 
5 2 5.06663 4.75326 4.45227 
