ITEM: TIMESTEP
250
ITEM: NUMBER OF ATOMS
5
ITEM: BOX BOUNDS xy xz yz pp pp pp
-2.5310610000000000e-01 1.0327702800000001e+01 2.7160859999999998e-01
0.0000000000000000e+00 1.0157631800000001e+01 -2.5310610000000000e-01
0.0000000000000000e+00 1.0036185300000000e+01 1.4269630000000000e-01
ITEM: ATOMS id type x y z 
1 1 5.70431 4.9206 3.59304 
2 1 4.03825 4.76607 4.16288 
3 1 5.25588 5.47436 5.2266 
4 1 5.21866 3.74967 4.88492 
5 2 5.07103 4.76403 4.45954 
