ITEM: TIMESTEP
610
ITEM: NUMBER OF ATOMS
5
ITEM: BOX BOUNDS xy xz yz pp pp pp
-2.5310610000000000e-01 1.0327702800000001e+01 2.7160859999999998e-01
0.0000000000000000e+00 1.0157631800000001e+01 -2.5310610000000000e-01
0.0000000000000000e+00 1.0036185300000000e+01 1.4269630000000000e-01
ITEM: ATOMS id type x y z 
1 1 5.61248 4.62754 3.53223 
2 1 4.00458 4.88049 4.27827 
3 1 5.48104 5.62966 4.9978 
4 1 5.2401 3.89754 5.05632 
5 2 5.06094 4.75365 4.45977 
