ITEM: TIMESTEP
70
ITEM: NUMBER OF ATOMS
5
ITEM: BOX BOUNDS xy xz yz pp pp pp
-2.5310610000000000e-01 1.0327702800000001e+01 2.7160859999999998e-01
0.0000000000000000e+00 1.0157631800000001e+01 -2.5310610000000000e-01
0.0000000000000000e+00 1.0036185300000000e+01 1.4269630000000000e-01
ITEM: ATOMS id type x y z 
1 1 4.94185 3.72698 4.81918 
2 1 4.09454 5.23588 4.4365 
3 1 5.5474 4.75033 3.49483 
4 1 5.7253 5.2517 5.15173 
5 2 5.06337 4.75952 4.45664 
