# LAMMPS data file written by OVITO
5 atoms
2 atom types
0.0 9.950304 xlo xhi
0.0 10.0576515 ylo yhi
0.0 9.8131209 zlo zhi
0.1337501 0.1150473 -0.0564757 xy xz yz

Atoms # atomic

1 1 5.4342118 4.0599823 3.5285473
2 1 4.021821 4.8296213 4.3411188
3 1 5.666625 5.6560855 4.3517099
4 1 5.3832178 4.1401892 5.2734671
5 2 5.1096892 4.6981101 4.3605895
