# LAMMPS data file written by OVITO
5 atoms
2 atom types
0.0 9.8583442 xlo xhi
0.0 10.1272411 ylo yhi
0.0 9.9421454 zlo zhi
0.0794064 0.2350018 -0.0446778 xy xz yz

Atoms # atomic

1 1 5.406107 4.089386 3.5782907
2 1 4.0165782 4.869585 4.3993359
3 1 5.6337834 5.7024756 4.4049349
4 1 5.3717017 4.1733308 5.3348527
5 2 5.0920029 4.726677 4.4162336
