# LAMMPS data file written by OVITO
5 atoms
2 atom types
0.0 10.1142588 xlo xhi
0.0 10.2631235 ylo yhi
0.0 10.2167931 zlo zhi
0.0367499 0.1383306 -0.0563222 xy xz yz

Atoms # atomic

1 1 5.4922443 4.1388249 3.6780403
2 1 4.0496402 4.9249568 4.5216093
3 1 5.713141 5.7692619 4.5274716
4 1 5.4344883 4.2186647 5.4790778
5 2 5.1551256 4.7834034 4.5364633
