# LAMMPS data file written by OVITO
5 atoms
2 atom types
0.0 10.0164318 xlo xhi
0.0 10.1394377 ylo yhi
0.0 9.9877472 zlo zhi
0.0351961 0.058856 0.2243383 xy xz yz

Atoms # atomic

1 1 5.4112635 4.1928206 3.5909474
2 1 3.9686178 4.9954778 4.4202585
3 1 5.6233697 5.8326297 4.4325991
4 1 5.3387613 4.3180299 5.3596721
5 2 5.0692368 4.858273 4.427012
