# LAMMPS data file written by OVITO
5 atoms
2 atom types
0.0 10.2539892 xlo xhi
0.0 9.9626608 ylo yhi
0.0 9.9839736 zlo zhi
0.2456221 -0.1862627 -0.2302818 xy xz yz

Atoms # atomic

1 1 5.5386849 3.959336 3.5960267
2 1 4.0631843 4.7053457 4.4178472
3 1 5.7627235 5.5242753 4.426641
4 1 5.424191 4.0047026 5.3572903
5 2 5.183557 4.5618711 4.4316755
