# LAMMPS data file written by OVITO
5 atoms
2 atom types
0.0 10.2149592 xlo xhi
0.0 10.2819929 ylo yhi
0.0 9.8218317 zlo zhi
-0.2738647 0.0852164 -0.1571505 xy xz yz

Atoms # atomic

1 1 5.3961644 4.11654 3.5295036
2 1 3.9155614 4.893981 4.3456316
3 1 5.5683007 5.7404485 4.3538466
4 1 5.3336578 4.1688981 5.2778854
5 2 5.0398655 4.755107 4.3691573
