# LAMMPS data file written by OVITO
5 atoms
2 atom types
0.0 10.229496 xlo xhi
0.0 10.0043945 ylo yhi
0.0 9.9861604 zlo zhi
-0.0214997 -0.1211518 0.0601976 xy xz yz

Atoms # atomic

1 1 5.4366517 4.0771475 3.5933657
2 1 3.9496928 4.8539662 4.41818
3 1 5.6299606 5.6822076 4.4268379
4 1 5.3400779 4.1712966 5.3557787
5 2 5.0745049 4.7165108 4.4308796
