# LAMMPS data file written by OVITO
5 atoms
2 atom types
0.0 10.2565603 xlo xhi
0.0 9.8128481 ylo yhi
0.0 9.8293467 zlo zhi
-0.2453178 -0.2571032 -0.3012912 xy xz yz

Atoms # atomic

1 1 5.3124247 3.87526 3.5410283
2 1 3.7983153 4.5956884 4.3438697
3 1 5.4482517 5.4043555 4.3511706
4 1 5.1930518 3.9052882 5.2770181
5 2 4.913921 4.4696441 4.3631439
