# LAMMPS data file written by OVITO
5 atoms
2 atom types
0.0 10.0601826 xlo xhi
0.0 9.967228 ylo yhi
0.0 9.8716698 zlo zhi
0.1252106 -0.0200632 -0.2242534 xy xz yz

Atoms # atomic

1 1 5.4416147 3.9597056 3.5529201
2 1 4.0008297 4.7157078 4.3642655
3 1 5.6577034 5.5325012 4.3740339
4 1 5.3599205 4.0082054 5.2992025
5 2 5.1010075 4.5700736 4.3886929
