# LAMMPS data file written by OVITO
5 atoms
2 atom types
0.0 10.0560942 xlo xhi
0.0 10.0149355 ylo yhi
0.0 10.0361853 zlo zhi
0.2716086 -0.2531061 0.1426963 xy xz yz

Atoms # atomic

1 1 5.4149771 4.1112814 3.6103289
2 1 3.9614296 4.8905922 4.4355731
3 1 5.637106 5.718041 4.4470096
4 1 5.2983666 4.230072 5.3841763
5 2 5.0631352 4.7607584 4.458735
