 vasp.5.4.4.18Apr17-6-g9f103f2a35 (build Jul 12 2018 13:43:46) complex           
 executed on             LinuxGNU date 2019.06.25  21:09:36
 running on    1 total cores
 distrk:  each k-point on    1 cores,    1 groups
 distr:  one band on NCORES_PER_BAND=   1 cores,    1 groups


--------------------------------------------------------------------------------------------------------


 INCAR:
 POTCAR:    PAW_PBE H 15Jun2001                   
 POTCAR:    PAW_PBE C 08Apr2002                   
 POTCAR:    PAW_PBE H 15Jun2001                   
   VRHFIN =H: ultrasoft test                                                    
   LEXCH  = PE                                                                  
   EATOM  =    12.4884 eV,    0.9179 Ry                                         
                                                                                
   TITEL  = PAW_PBE H 15Jun2001                                                 
   LULTRA =        F    use ultrasoft PP ?                                      
   IUNSCR =        0    unscreen: 0-lin 1-nonlin 2-no                           
   RPACOR =    0.000    partial core radius                                     
   POMASS =    1.000; ZVAL   =    1.000    mass and valenz                      
   RCORE  =    1.100    outmost cutoff radius                                   
   RWIGS  =    0.700; RWIGS  =    0.370    wigner-seitz radius (au A)           
   ENMAX  =  250.000; ENMIN  =  200.000 eV                                      
   RCLOC  =    0.701    cutoff for local pot                                    
   LCOR   =        T    correct aug charges                                     
   LPAW   =        T    paw PP                                                  
   EAUG   =  400.000                                                            
   RMAX   =    1.123    core radius for proj-oper                               
   RAUG   =    1.200    factor for augmentation sphere                          
   RDEP   =    1.112    radius for radial grids                                 
   RDEPT  =    0.926    core radius for aug-charge                              
                                                                                
   Atomic configuration                                                         
    2 entries                                                                   
     n  l   j            E        occ.                                          
     1  0  0.50        -6.4927   1.0000                                         
     2  1  0.50        -3.4015   0.0000                                         
   Description                                                                  
     l       E           TYP  RCUT    TYP  RCUT                                 
     0     -6.4927494     23  1.100                                             
     0      6.8029130     23  1.100                                             
     1     -4.0817478     23  1.100                                             
  local pseudopotential read in
  atomic valenz-charges read in
  non local Contribution for L=           0  read in
    real space projection operators read in
  non local Contribution for L=           0  read in
    real space projection operators read in
  non local Contribution for L=           1  read in
    real space projection operators read in
    PAW grid and wavefunctions read in

   number of l-projection  operators is LMAX  =           3
   number of lm-projection operators is LMMAX =           5

 POTCAR:    PAW_PBE C 08Apr2002                   
   VRHFIN =C: s2p2                                                              
   LEXCH  = PE                                                                  
   EATOM  =   147.1560 eV,   10.8157 Ry                                         
                                                                                
   TITEL  = PAW_PBE C 08Apr2002                                                 
   LULTRA =        F    use ultrasoft PP ?                                      
   IUNSCR =        1    unscreen: 0-lin 1-nonlin 2-no                           
   RPACOR =    1.200    partial core radius                                     
   POMASS =   12.011; ZVAL   =    4.000    mass and valenz                      
   RCORE  =    1.500    outmost cutoff radius                                   
   RWIGS  =    1.630; RWIGS  =    0.863    wigner-seitz radius (au A)           
   ENMAX  =  400.000; ENMIN  =  300.000 eV                                      
   ICORE  =        2    local potential                                         
   LCOR   =        T    correct aug charges                                     
   LPAW   =        T    paw PP                                                  
   EAUG   =  644.873                                                            
   DEXC   =    0.000                                                            
   RMAX   =    1.529    core radius for proj-oper                               
   RAUG   =    1.300    factor for augmentation sphere                          
   RDEP   =    1.501    radius for radial grids                                 
   RDEPT  =    1.300    core radius for aug-charge                              
                                                                                
   Atomic configuration                                                         
    4 entries                                                                   
     n  l   j            E        occ.                                          
     1  0  0.50      -273.3789   2.0000                                         
     2  0  0.50       -13.7508   2.0000                                         
     2  1  0.50        -5.2854   2.0000                                         
     3  2  1.50        -5.4423   0.0000                                         
   Description                                                                  
     l       E           TYP  RCUT    TYP  RCUT                                 
     0    -13.7508458     23  1.200                                             
     0     -8.2022199     23  1.200                                             
     1     -5.2854383     23  1.500                                             
     1     34.0145650     23  1.500                                             
     2     -5.4423304      7  1.500                                             
  local pseudopotential read in
  partial core-charges read in
  partial kinetic energy density read in
  atomic valenz-charges read in
  non local Contribution for L=           0  read in
    real space projection operators read in
  non local Contribution for L=           0  read in
    real space projection operators read in
  non local Contribution for L=           1  read in
    real space projection operators read in
  non local Contribution for L=           1  read in
    real space projection operators read in
    PAW grid and wavefunctions read in

   number of l-projection  operators is LMAX  =           4
   number of lm-projection operators is LMMAX =           8


 ----------------------------------------------------------------------------- 
|                                                                             |
|  ADVICE TO THIS USER RUNNING 'VASP/VAMP'   (HEAR YOUR MASTER'S VOICE ...):  |
|                                                                             |
|      You have a (more or less) 'small supercell' and for smaller cells      |
|      it is recommended  to use the reciprocal-space projection scheme!      |
|      The real space optimization is not  efficient for small cells and it   |
|      is also less accurate ...                                              |
|      Therefore set LREAL=.FALSE. in the  INCAR file                         |
|                                                                             |
 ----------------------------------------------------------------------------- 

 Optimization of the real space projectors (new method)

 maximal supplied QI-value         = 34.20
 optimisation between [QCUT,QGAM] = [  9.92, 20.18] = [ 27.55,114.04] Ry 
 Optimized for a Real-space Cutoff    1.34 Angstroem

   l    n(q)    QCUT    max X(q) W(low)/X(q) W(high)/X(q)  e(spline) 
   0      8     9.919    19.460    0.16E-03    0.20E-03    0.36E-06
   0      8     9.919    12.209    0.16E-03    0.20E-03    0.35E-06
   1      8     9.919     4.655    0.19E-03    0.46E-03    0.40E-06
 Optimization of the real space projectors (new method)

 maximal supplied QI-value         = 25.13
 optimisation between [QCUT,QGAM] = [ 10.05, 20.36] = [ 28.30,116.06] Ry 
 Optimized for a Real-space Cutoff    1.51 Angstroem

   l    n(q)    QCUT    max X(q) W(low)/X(q) W(high)/X(q)  e(spline) 
   0      9    10.053   115.676    0.19E-03    0.21E-03    0.38E-06
   0      9    10.053    87.132    0.19E-03    0.21E-03    0.38E-06
   1      9    10.053     4.429    0.87E-04    0.11E-03    0.39E-06
   1      9    10.053     2.733    0.59E-04    0.62E-04    0.43E-06
  PAW_PBE H 15Jun2001                   :
 energy of atom  1       EATOM=  -12.4884
 kinetic energy error for atom=    0.0098 (will be added to EATOM!!)
  PAW_PBE C 08Apr2002                   :
 energy of atom  2       EATOM= -147.1560
 kinetic energy error for atom=    0.0288 (will be added to EATOM!!)


 POSCAR: POSCAR file written by OVITO            
  positions in cartesian coordinates
  No initial velocities read in
 exchange correlation table for  LEXCH =        8
   RHO(1)=    0.500       N(1)  =     2000
   RHO(2)=  100.500       N(2)  =     4000



--------------------------------------------------------------------------------------------------------


 ion  position               nearest neighbor table
   1  0.411  0.405  0.430-   5 1.14
   2  0.575  0.394  0.478-   5 1.08
   3  0.475  0.546  0.517-   5 1.11
   4  0.523  0.519  0.349-   5 1.10
   5  0.505  0.469  0.445-   2 1.08   4 1.10   3 1.11   1 1.14


IMPORTANT INFORMATION: All symmetrisations will be switched off!
NOSYMM: (Re-)initialisation of all symmetry stuff for point group C_1.




Automatic generation of k-mesh.
 generate k-points for:    1    1    1
Space group operators:
 irot       det(A)        alpha          n_x          n_y          n_z        tau_x        tau_y        tau_z
    1     1.000000     0.000000     1.000000     0.000000     0.000000     0.000000     0.000000     0.000000
 
 Subroutine IBZKPT returns following result:
 ===========================================
 
 Found      1 irreducible k-points:
 
 Following reciprocal coordinates:
            Coordinates               Weight
  0.000000  0.000000  0.000000      1.000000
 
 Following cartesian coordinates:
            Coordinates               Weight
  0.000000  0.000000  0.000000      1.000000
 


--------------------------------------------------------------------------------------------------------




 Dimension of arrays:
   k-points           NKPTS =      1   k-points in BZ     NKDIM =      1   number of bands    NBANDS=      8
   number of dos      NEDOS =    301   number of ions     NIONS =      5
   non local maximal  LDIM  =      4   non local SUM 2l+1 LMDIM =      8
   total plane-waves  NPLWV = 313600
   max r-space proj   IRMAX =   4575   max aug-charges    IRDMAX=   3913
   dimension x,y,z NGX =    70 NGY =   64 NGZ =   70
   dimension x,y,z NGXF=   140 NGYF=  128 NGZF=  140
   support grid    NGXF=   140 NGYF=  128 NGZF=  140
   ions per type =               4   1
   NGX,Y,Z   is equivalent  to a cutoff of  11.63, 10.92, 11.38 a.u.
   NGXF,Y,Z  is equivalent  to a cutoff of  23.26, 21.84, 22.76 a.u.

 SYSTEM =  unknown system                          
 POSCAR =  POSCAR file written by OVITO            

 Startparameter for this run:
   NWRITE =      2    write-flag & timer
   PREC   = a         normal or accurate (medium, high low for compatibility)
   ISTART =      0    job   : 0-new  1-cont  2-samecut
   ICHARG =      2    charge: 1-file 2-atom 10-const
   ISPIN  =      1    spin polarized calculation?
   LNONCOLLINEAR =      F non collinear calculations
   LSORBIT =      F    spin-orbit coupling
   INIWAV =      1    electr: 0-lowe 1-rand  2-diag
   LASPH  =      F    aspherical Exc in radial PAW
   METAGGA=      F    non-selfconsistent MetaGGA calc.

 Electronic Relaxation 1
   ENCUT  =  400.0 eV  29.40 Ry    5.42 a.u.  16.32 15.89 16.67*2*pi/ulx,y,z
   ENINI  =  400.0     initial cutoff
   ENAUG  =  644.9 eV  augmentation charge cutoff
   NELM   =    120;   NELMIN=  4; NELMDL= -5     # of ELM steps 
   EDIFF  = 0.1E-05   stopping-criterion for ELM
   LREAL  =      T    real-space projection
   NLSPLINE    = F    spline interpolate recip. space projectors
   LCOMPAT=      F    compatible to vasp.4.4
   GGA_COMPAT  = T    GGA compatible to vasp.4.4-vasp.4.6
   LMAXPAW     = -100 max onsite density
   LMAXMIX     =    2 max onsite mixed and CHGCAR
   VOSKOWN=      0    Vosko Wilk Nusair interpolation
   ROPT   =   -0.00025  -0.00025
 Ionic relaxation
   EDIFFG = 0.1E-04   stopping-criterion for IOM
   NSW    =      0    number of steps for IOM
   NBLOCK =      1;   KBLOCK =      1    inner block; outer block 
   IBRION =     -1    ionic relax: 0-MD 1-quasi-New 2-CG
   NFREE  =      0    steps in history (QN), initial steepest desc. (CG)
   ISIF   =      2    stress and relaxation
   IWAVPR =     10    prediction:  0-non 1-charg 2-wave 3-comb
   ISYM   =      0    0-nonsym 1-usesym 2-fastsym
   LCORR  =      T    Harris-Foulkes like correction to forces

   POTIM  = 0.5000    time-step for ionic-motion
   TEIN   =    0.0    initial temperature
   TEBEG  =    0.0;   TEEND  =   0.0 temperature during run
   SMASS  =  -3.00    Nose mass-parameter (am)
   estimated Nose-frequenzy (Omega)   =  0.10E-29 period in steps =****** mass=  -0.229E-26a.u.
   SCALEE = 1.0000    scale energy and forces
   NPACO  =    256;   APACO  = 16.0  distance and # of slots for P.C.
   PSTRESS=    0.0 pullay stress

  Mass of Ions in am
   POMASS =   1.00 12.01
  Ionic Valenz
   ZVAL   =   1.00  4.00
  Atomic Wigner-Seitz radii
   RWIGS  =  -1.00 -1.00
  virtual crystal weights 
   VCA    =   1.00  1.00
   NELECT =       8.0000    total number of electrons
   NUPDOWN=      -1.0000    fix difference up-down

 DOS related values:
   EMIN   =  10.00;   EMAX   =-10.00  energy-range for DOS
   EFERMI =   0.00
   ISMEAR =     0;   SIGMA  =   0.05  broadening in eV -4-tet -1-fermi 0-gaus

 Electronic relaxation 2 (details)
   IALGO  =     38    algorithm
   LDIAG  =      T    sub-space diagonalisation (order eigenvalues)
   LSUBROT=      F    optimize rotation matrix (better conditioning)
   TURBO    =      0    0=normal 1=particle mesh
   IRESTART =      0    0=no restart 2=restart with 2 vectors
   NREBOOT  =      0    no. of reboots
   NMIN     =      0    reboot dimension
   EREF     =   0.00    reference energy to select bands
   IMIX   =      4    mixing-type and parameters
     AMIX     =   0.40;   BMIX     =  1.00
     AMIX_MAG =   1.60;   BMIX_MAG =  1.00
     AMIN     =   0.10
     WC   =   100.;   INIMIX=   1;  MIXPRE=   1;  MAXMIX= -45

 Intra band minimization:
   WEIMIN = 0.0000     energy-eigenvalue tresh-hold
   EBREAK =  0.31E-07  absolut break condition
   DEPER  =   0.30     relativ break condition  

   TIME   =   0.40     timestep for ELM

  volume/ion in A,a.u.               =     199.29      1344.86
  Fermi-wavevector in a.u.,A,eV,Ry     =   0.327809  0.619470  1.462068  0.107459
  Thomas-Fermi vector in A             =   1.220856

 Write flags
   LWAVE        =      F    write WAVECAR
   LDOWNSAMPLE  =      F    k-point downsampling of WAVECAR
   LCHARG       =      F    write CHGCAR
   LVTOT        =      F    write LOCPOT, total local potential
   LVHAR        =      F    write LOCPOT, Hartree potential only
   LELF         =      F    write electronic localiz. function (ELF)
   LORBIT       =      0    0 simple, 1 ext, 2 COOP (PROOUT), +10 PAW based schemes


 Dipole corrections
   LMONO  =      F    monopole corrections only (constant potential shift)
   LDIPOL =      F    correct potential (dipole corrections)
   IDIPOL =      0    1-x, 2-y, 3-z, 4-all directions 
   EPSILON=  1.0000000 bulk dielectric constant

 Exchange correlation treatment:
   GGA     =    --    GGA type
   LEXCH   =     8    internal setting for exchange type
   VOSKOWN=      0    Vosko Wilk Nusair interpolation
   LHFCALC =     F    Hartree Fock is set to
   LHFONE  =     F    Hartree Fock one center treatment
   AEXX    =    0.0000 exact exchange contribution

 Linear response parameters
   LEPSILON=     F    determine dielectric tensor
   LRPA    =     F    only Hartree local field effects (RPA)
   LNABLA  =     F    use nabla operator in PAW spheres
   LVEL    =     F    velocity operator in full k-point grid
   LINTERFAST=   F  fast interpolation
   KINTER  =     0    interpolate to denser k-point grid
   CSHIFT  =0.1000    complex shift for real part using Kramers Kronig
   OMEGAMAX=  -1.0    maximum frequency
   DEG_THRESHOLD= 0.2000000E-02 threshold for treating states as degnerate
   RTIME   =   -0.100 relaxation time in fs
  (WPLASMAI=    0.000 imaginary part of plasma frequency in eV, 0.658/RTIME)
   DFIELD  = 0.0000000 0.0000000 0.0000000 field for delta impulse in time

 Orbital magnetization related:
   ORBITALMAG=     F  switch on orbital magnetization
   LCHIMAG   =     F  perturbation theory with respect to B field
   DQ        =  0.001000  dq finite difference perturbation B field
   LLRAUG    =     F  two centre corrections for induced B field



--------------------------------------------------------------------------------------------------------


 Static calculation
 charge density and potential will be updated during run
 non-spin polarized calculation
 Variant of blocked Davidson
 Davidson routine will perform the subspace rotation
 perform sub-space diagonalisation
    after iterative eigenvector-optimisation
 modified Broyden-mixing scheme, WC =      100.0
 initial mixing is a Kerker type mixing with AMIX =  0.4000 and BMIX =      1.0000
 Hartree-type preconditioning will be used
 using additional bands            4
 real space projection scheme for non local part
 use partial core corrections
 calculate Harris-corrections to forces   (improved forces if not selfconsistent)
 use gradient corrections 
 use of overlap-Matrix (Vanderbilt PP)
 Gauss-broadening in eV      SIGMA  =   0.05


--------------------------------------------------------------------------------------------------------


  energy-cutoff  :      400.00
  volume of cell :      996.44
      direct lattice vectors                 reciprocal lattice vectors
    10.006619500  0.000000000  0.000000000     0.099933849  0.002269562  0.000748798
    -0.221244500  9.741885200  0.000000000     0.000000000  0.102649536 -0.002424515
    -0.082073000  0.241428100 10.221626300     0.000000000 -0.000000000  0.097831790

  length of vectors
    10.006619500  9.744397179 10.224806488     0.099962422  0.102678165  0.097831790



 k-points in units of 2pi/SCALE and weight: read from INCAR                         
   0.00000000  0.00000000  0.00000000       1.000

 k-points in reciprocal lattice and weights: read from INCAR                         
   0.00000000  0.00000000  0.00000000       1.000

 position of ions in fractional coordinates (direct lattice) 
   0.41053207  0.40451120  0.42976821
   0.57512683  0.39369155  0.47754240
   0.47490815  0.54558573  0.51682580
   0.52284070  0.51904909  0.34873022
   0.50486779  0.46934784  0.44459264

 position of ions in cartesian coordinates  (Angst):
   3.98327000  4.04445980  4.39293000
   5.62877990  3.95059000  4.88126000
   4.58909990  5.43980980  5.28280020
   5.08840990  5.14070990  3.56459000
   4.91169020  4.67966990  4.54445980



--------------------------------------------------------------------------------------------------------


 k-point  1 :   0.0000 0.0000 0.0000  plane waves:   18093

 maximum and minimum number of plane-waves per node :     18093    18093

 maximum number of plane-waves:     18093
 maximum index in each direction: 
   IXMAX=   16   IYMAX=   15   IZMAX=   16
   IXMIN=  -16   IYMIN=  -15   IZMIN=  -16


 serial   3D FFT for wavefunctions
 parallel 3D FFT for charge:
    minimum data exchange during FFTs selected (reduces bandwidth)


 total amount of memory used by VASP MPI-rank0   274696. kBytes
=======================================================================

   base      :      30000. kBytes
   nonlr-proj:       1236. kBytes
   fftplans  :      86584. kBytes
   grid      :     154542. kBytes
   one-center:         15. kBytes
   wavefun   :       2319. kBytes

     INWAV:  cpu time    0.0000: real time    0.0000
 Broyden mixing: mesh for mixing (old mesh)
   NGX = 33   NGY = 31   NGZ = 33
  (NGX  =140   NGY  =128   NGZ  =140)
  gives a total of  33759 points

 initial charge density was supplied:
 charge density of overlapping atoms calculated
 number of electron       8.0000000 magnetization 
 keeping initial charge density in first step


--------------------------------------------------------------------------------------------------------


 Maximum index for non-local projection operator         4389
 Maximum index for augmentation-charges         3601 (set IRDMAX)


--------------------------------------------------------------------------------------------------------


 First call to EWALD:  gamma=   0.177
 Maximum number of real-space cells 3x 3x 3
 Maximum number of reciprocal cells 3x 3x 3

    FEWALD:  cpu time    0.0007: real time    0.0007


--------------------------------------- Iteration      1(   1)  ---------------------------------------


    POTLOK:  cpu time    1.6043: real time    1.6083
    SETDIJ:  cpu time    0.0066: real time    0.0066
     EDDAV:  cpu time    0.4885: real time    0.4897
       DOS:  cpu time    0.0001: real time    0.0001
    --------------------------------------------
      LOOP:  cpu time    2.0996: real time    2.1047

 eigenvalue-minimisations  :    16
 total energy-change (2. order) : 0.6241989E+02  (-0.1507224E+03)
 number of electron       8.0000000 magnetization 
 augmentation part        8.0000000 magnetization 

 Free energy of the ion-electron system (eV)
  ---------------------------------------------------
  alpha Z        PSCENC =         0.24311671
  Ewald energy   TEWEN  =       127.23689155
  -Hartree energ DENC   =      -243.21204994
  -exchange      EXHF   =         0.00000000
  -V(xc)+E(xc)   XCENC  =        21.97643871
  PAW double counting   =       117.05815612     -117.66307307
  entropy T*S    EENTRO =        -0.00000000
  eigenvalues    EBANDS =       -40.26134036
  atomic energy  EATOM  =       197.04175453
  Solvation  Ediel_sol  =         0.00000000
  ---------------------------------------------------
  free energy    TOTEN  =        62.41989426 eV

  energy without entropy =       62.41989426  energy(sigma->0) =       62.41989426


--------------------------------------------------------------------------------------------------------




--------------------------------------- Iteration      1(   2)  ---------------------------------------


     EDDAV:  cpu time    0.8601: real time    0.8623
       DOS:  cpu time    0.0001: real time    0.0001
    --------------------------------------------
      LOOP:  cpu time    0.8602: real time    0.8624

 eigenvalue-minimisations  :    32
 total energy-change (2. order) :-0.7488140E+02  (-0.7488140E+02)
 number of electron       8.0000000 magnetization 
 augmentation part        8.0000000 magnetization 

 Free energy of the ion-electron system (eV)
  ---------------------------------------------------
  alpha Z        PSCENC =         0.24311671
  Ewald energy   TEWEN  =       127.23689155
  -Hartree energ DENC   =      -243.21204994
  -exchange      EXHF   =         0.00000000
  -V(xc)+E(xc)   XCENC  =        21.97643871
  PAW double counting   =       117.05815612     -117.66307307
  entropy T*S    EENTRO =        -0.00000000
  eigenvalues    EBANDS =      -115.14273638
  atomic energy  EATOM  =       197.04175453
  Solvation  Ediel_sol  =         0.00000000
  ---------------------------------------------------
  free energy    TOTEN  =       -12.46150176 eV

  energy without entropy =      -12.46150176  energy(sigma->0) =      -12.46150176


--------------------------------------------------------------------------------------------------------




--------------------------------------- Iteration      1(   3)  ---------------------------------------


     EDDAV:  cpu time    0.4838: real time    0.4849
       DOS:  cpu time    0.0001: real time    0.0001
    --------------------------------------------
      LOOP:  cpu time    0.4839: real time    0.4850

 eigenvalue-minimisations  :    16
 total energy-change (2. order) :-0.1402625E+02  (-0.1402625E+02)
 number of electron       8.0000000 magnetization 
 augmentation part        8.0000000 magnetization 

 Free energy of the ion-electron system (eV)
  ---------------------------------------------------
  alpha Z        PSCENC =         0.24311671
  Ewald energy   TEWEN  =       127.23689155
  -Hartree energ DENC   =      -243.21204994
  -exchange      EXHF   =         0.00000000
  -V(xc)+E(xc)   XCENC  =        21.97643871
  PAW double counting   =       117.05815612     -117.66307307
  entropy T*S    EENTRO =        -0.00000000
  eigenvalues    EBANDS =      -129.16898703
  atomic energy  EATOM  =       197.04175453
  Solvation  Ediel_sol  =         0.00000000
  ---------------------------------------------------
  free energy    TOTEN  =       -26.48775242 eV

  energy without entropy =      -26.48775242  energy(sigma->0) =      -26.48775242


--------------------------------------------------------------------------------------------------------




--------------------------------------- Iteration      1(   4)  ---------------------------------------


     EDDAV:  cpu time    0.8663: real time    0.8684
       DOS:  cpu time    0.0001: real time    0.0001
    --------------------------------------------
      LOOP:  cpu time    0.8664: real time    0.8685

 eigenvalue-minimisations  :    32
 total energy-change (2. order) :-0.8413661E+00  (-0.8413661E+00)
 number of electron       8.0000000 magnetization 
 augmentation part        8.0000000 magnetization 

 Free energy of the ion-electron system (eV)
  ---------------------------------------------------
  alpha Z        PSCENC =         0.24311671
  Ewald energy   TEWEN  =       127.23689155
  -Hartree energ DENC   =      -243.21204994
  -exchange      EXHF   =         0.00000000
  -V(xc)+E(xc)   XCENC  =        21.97643871
  PAW double counting   =       117.05815612     -117.66307307
  entropy T*S    EENTRO =        -0.00000000
  eigenvalues    EBANDS =      -130.01035309
  atomic energy  EATOM  =       197.04175453
  Solvation  Ediel_sol  =         0.00000000
  ---------------------------------------------------
  free energy    TOTEN  =       -27.32911848 eV

  energy without entropy =      -27.32911848  energy(sigma->0) =      -27.32911848


--------------------------------------------------------------------------------------------------------




--------------------------------------- Iteration      1(   5)  ---------------------------------------


     EDDAV:  cpu time    0.8728: real time    0.8749
       DOS:  cpu time    0.0001: real time    0.0001
    CHARGE:  cpu time    0.0958: real time    0.0960
    MIXING:  cpu time    0.0332: real time    0.0333
    --------------------------------------------
      LOOP:  cpu time    1.0019: real time    1.0043

 eigenvalue-minimisations  :    32
 total energy-change (2. order) :-0.4684925E-03  (-0.4684924E-03)
 number of electron       8.0000001 magnetization 
 augmentation part        0.2226448 magnetization 

 Broyden mixing:
  rms(total) = 0.85857E+00    rms(broyden)= 0.85838E+00
  rms(prec ) = 0.12134E+01
  weight for this iteration     100.00

 Free energy of the ion-electron system (eV)
  ---------------------------------------------------
  alpha Z        PSCENC =         0.24311671
  Ewald energy   TEWEN  =       127.23689155
  -Hartree energ DENC   =      -243.21204994
  -exchange      EXHF   =         0.00000000
  -V(xc)+E(xc)   XCENC  =        21.97643871
  PAW double counting   =       117.05815612     -117.66307307
  entropy T*S    EENTRO =        -0.00000000
  eigenvalues    EBANDS =      -130.01082159
  atomic energy  EATOM  =       197.04175453
  Solvation  Ediel_sol  =         0.00000000
  ---------------------------------------------------
  free energy    TOTEN  =       -27.32958697 eV

  energy without entropy =      -27.32958697  energy(sigma->0) =      -27.32958697


--------------------------------------------------------------------------------------------------------




--------------------------------------- Iteration      1(   6)  ---------------------------------------


    POTLOK:  cpu time    1.6022: real time    1.6059
    SETDIJ:  cpu time    0.0064: real time    0.0064
     EDDAV:  cpu time    0.6632: real time    0.6648
       DOS:  cpu time    0.0001: real time    0.0001
    CHARGE:  cpu time    0.0900: real time    0.0902
    MIXING:  cpu time    0.0355: real time    0.0355
    --------------------------------------------
      LOOP:  cpu time    2.3973: real time    2.4030

 eigenvalue-minimisations  :    24
 total energy-change (2. order) : 0.2804570E+01  (-0.8700048E+00)
 number of electron       8.0000000 magnetization 
 augmentation part        0.1948896 magnetization 

 Broyden mixing:
  rms(total) = 0.43920E+00    rms(broyden)= 0.43909E+00
  rms(prec ) = 0.54999E+00
  weight for this iteration     100.00

 eigenvalues of (default mixing * dielectric matrix)
  average eigenvalue GAMMA=   1.1928
  1.1928

 Free energy of the ion-electron system (eV)
  ---------------------------------------------------
  alpha Z        PSCENC =         0.24311671
  Ewald energy   TEWEN  =       127.23689155
  -Hartree energ DENC   =      -262.65760868
  -exchange      EXHF   =         0.00000000
  -V(xc)+E(xc)   XCENC  =        23.15506166
  PAW double counting   =       236.20205673     -236.97818531
  entropy T*S    EENTRO =        -0.00000000
  eigenvalues    EBANDS =      -108.76810431
  atomic energy  EATOM  =       197.04175453
  Solvation  Ediel_sol  =         0.00000000
  ---------------------------------------------------
  free energy    TOTEN  =       -24.52501712 eV

  energy without entropy =      -24.52501712  energy(sigma->0) =      -24.52501712


--------------------------------------------------------------------------------------------------------




--------------------------------------- Iteration      1(   7)  ---------------------------------------


    POTLOK:  cpu time    1.6029: real time    1.6067
    SETDIJ:  cpu time    0.0064: real time    0.0065
     EDDAV:  cpu time    0.8723: real time    0.8743
       DOS:  cpu time    0.0001: real time    0.0001
    CHARGE:  cpu time    0.0901: real time    0.0903
    MIXING:  cpu time    0.0344: real time    0.0345
    --------------------------------------------
      LOOP:  cpu time    2.6062: real time    2.6123

 eigenvalue-minimisations  :    32
 total energy-change (2. order) : 0.4653311E+00  (-0.6936806E-01)
 number of electron       8.0000000 magnetization 
 augmentation part        0.1867422 magnetization 

 Broyden mixing:
  rms(total) = 0.22442E+00    rms(broyden)= 0.22438E+00
  rms(prec ) = 0.27634E+00
  weight for this iteration     100.00

 eigenvalues of (default mixing * dielectric matrix)
  average eigenvalue GAMMA=   1.6923
  1.2436  2.1409

 Free energy of the ion-electron system (eV)
  ---------------------------------------------------
  alpha Z        PSCENC =         0.24311671
  Ewald energy   TEWEN  =       127.23689155
  -Hartree energ DENC   =      -272.44851387
  -exchange      EXHF   =         0.00000000
  -V(xc)+E(xc)   XCENC  =        23.89336645
  PAW double counting   =       359.45518107     -360.25730525
  entropy T*S    EENTRO =        -0.00000000
  eigenvalues    EBANDS =       -99.22417721
  atomic energy  EATOM  =       197.04175453
  Solvation  Ediel_sol  =         0.00000000
  ---------------------------------------------------
  free energy    TOTEN  =       -24.05968602 eV

  energy without entropy =      -24.05968602  energy(sigma->0) =      -24.05968602


--------------------------------------------------------------------------------------------------------




--------------------------------------- Iteration      1(   8)  ---------------------------------------


    POTLOK:  cpu time    1.6034: real time    1.6072
    SETDIJ:  cpu time    0.0064: real time    0.0064
     EDDAV:  cpu time    0.8732: real time    0.8753
       DOS:  cpu time    0.0001: real time    0.0001
    CHARGE:  cpu time    0.0912: real time    0.0914
    MIXING:  cpu time    0.0350: real time    0.0350
    --------------------------------------------
      LOOP:  cpu time    2.6093: real time    2.6154

 eigenvalue-minimisations  :    32
 total energy-change (2. order) : 0.1614687E+00  (-0.1813799E-01)
 number of electron       8.0000000 magnetization 
 augmentation part        0.1842029 magnetization 

 Broyden mixing:
  rms(total) = 0.26990E-01    rms(broyden)= 0.26963E-01
  rms(prec ) = 0.55075E-01
  weight for this iteration     100.00

 eigenvalues of (default mixing * dielectric matrix)
  average eigenvalue GAMMA=   1.5428
  2.1520  1.1026  1.3737

 Free energy of the ion-electron system (eV)
  ---------------------------------------------------
  alpha Z        PSCENC =         0.24311671
  Ewald energy   TEWEN  =       127.23689155
  -Hartree energ DENC   =      -279.39594078
  -exchange      EXHF   =         0.00000000
  -V(xc)+E(xc)   XCENC  =        24.51227381
  PAW double counting   =       468.93871944     -469.72651977
  entropy T*S    EENTRO =        -0.00000000
  eigenvalues    EBANDS =       -92.74851277
  atomic energy  EATOM  =       197.04175453
  Solvation  Ediel_sol  =         0.00000000
  ---------------------------------------------------
  free energy    TOTEN  =       -23.89821729 eV

  energy without entropy =      -23.89821729  energy(sigma->0) =      -23.89821729


--------------------------------------------------------------------------------------------------------




--------------------------------------- Iteration      1(   9)  ---------------------------------------


    POTLOK:  cpu time    1.5999: real time    1.6037
    SETDIJ:  cpu time    0.0064: real time    0.0064
     EDDAV:  cpu time    0.4835: real time    0.4847
       DOS:  cpu time    0.0001: real time    0.0001
    CHARGE:  cpu time    0.0872: real time    0.0874
    MIXING:  cpu time    0.0355: real time    0.0356
    --------------------------------------------
      LOOP:  cpu time    2.2126: real time    2.2178

 eigenvalue-minimisations  :    16
 total energy-change (2. order) : 0.6757364E-02  (-0.3411545E-03)
 number of electron       8.0000000 magnetization 
 augmentation part        0.1837173 magnetization 

 Broyden mixing:
  rms(total) = 0.16485E-01    rms(broyden)= 0.16482E-01
  rms(prec ) = 0.36966E-01
  weight for this iteration     100.00

 eigenvalues of (default mixing * dielectric matrix)
  average eigenvalue GAMMA=   1.8772
  2.8454  2.4786  0.9944  1.1903

 Free energy of the ion-electron system (eV)
  ---------------------------------------------------
  alpha Z        PSCENC =         0.24311671
  Ewald energy   TEWEN  =       127.23689155
  -Hartree energ DENC   =      -280.67081773
  -exchange      EXHF   =         0.00000000
  -V(xc)+E(xc)   XCENC  =        24.58113611
  PAW double counting   =       466.84864523     -467.63427917
  entropy T*S    EENTRO =        -0.00000000
  eigenvalues    EBANDS =       -91.53790716
  atomic energy  EATOM  =       197.04175453
  Solvation  Ediel_sol  =         0.00000000
  ---------------------------------------------------
  free energy    TOTEN  =       -23.89145993 eV

  energy without entropy =      -23.89145993  energy(sigma->0) =      -23.89145993


--------------------------------------------------------------------------------------------------------




--------------------------------------- Iteration      1(  10)  ---------------------------------------


    POTLOK:  cpu time    1.5439: real time    1.5475
    SETDIJ:  cpu time    0.0065: real time    0.0065
     EDDAV:  cpu time    0.8730: real time    0.8750
       DOS:  cpu time    0.0001: real time    0.0001
    CHARGE:  cpu time    0.0877: real time    0.0879
    MIXING:  cpu time    0.0371: real time    0.0372
    --------------------------------------------
      LOOP:  cpu time    2.5482: real time    2.5543

 eigenvalue-minimisations  :    32
 total energy-change (2. order) : 0.8528533E-02  (-0.5566738E-03)
 number of electron       8.0000000 magnetization 
 augmentation part        0.1834231 magnetization 

 Broyden mixing:
  rms(total) = 0.67303E-02    rms(broyden)= 0.67289E-02
  rms(prec ) = 0.16431E-01
  weight for this iteration     100.00

 eigenvalues of (default mixing * dielectric matrix)
  average eigenvalue GAMMA=   1.8889
  3.1586  1.0242  1.1963  2.2210  1.8444

 Free energy of the ion-electron system (eV)
  ---------------------------------------------------
  alpha Z        PSCENC =         0.24311671
  Ewald energy   TEWEN  =       127.23689155
  -Hartree energ DENC   =      -282.31608026
  -exchange      EXHF   =         0.00000000
  -V(xc)+E(xc)   XCENC  =        24.65505291
  PAW double counting   =       457.94863642     -458.73016395
  entropy T*S    EENTRO =        -0.00000000
  eigenvalues    EBANDS =       -89.96213930
  atomic energy  EATOM  =       197.04175453
  Solvation  Ediel_sol  =         0.00000000
  ---------------------------------------------------
  free energy    TOTEN  =       -23.88293139 eV

  energy without entropy =      -23.88293139  energy(sigma->0) =      -23.88293139


--------------------------------------------------------------------------------------------------------




--------------------------------------- Iteration      1(  11)  ---------------------------------------


    POTLOK:  cpu time    1.4438: real time    1.4472
    SETDIJ:  cpu time    0.0064: real time    0.0064
     EDDAV:  cpu time    0.4805: real time    0.4816
       DOS:  cpu time    0.0001: real time    0.0001
    CHARGE:  cpu time    0.0852: real time    0.0854
    MIXING:  cpu time    0.0366: real time    0.0367
    --------------------------------------------
      LOOP:  cpu time    2.0526: real time    2.0574

 eigenvalue-minimisations  :    16
 total energy-change (2. order) :-0.6365339E-02  (-0.2369814E-03)
 number of electron       8.0000000 magnetization 
 augmentation part        0.1831737 magnetization 

 Broyden mixing:
  rms(total) = 0.49530E-02    rms(broyden)= 0.49523E-02
  rms(prec ) = 0.95530E-02
  weight for this iteration     100.00

 eigenvalues of (default mixing * dielectric matrix)
  average eigenvalue GAMMA=   2.0593
  4.0486  2.8473  2.2039  1.2211  1.0174  1.0174

 Free energy of the ion-electron system (eV)
  ---------------------------------------------------
  alpha Z        PSCENC =         0.24311671
  Ewald energy   TEWEN  =       127.23689155
  -Hartree energ DENC   =      -283.12893212
  -exchange      EXHF   =         0.00000000
  -V(xc)+E(xc)   XCENC  =        24.68760958
  PAW double counting   =       459.64212892     -460.42439439
  entropy T*S    EENTRO =        -0.00000000
  eigenvalues    EBANDS =       -89.18747151
  atomic energy  EATOM  =       197.04175453
  Solvation  Ediel_sol  =         0.00000000
  ---------------------------------------------------
  free energy    TOTEN  =       -23.88929673 eV

  energy without entropy =      -23.88929673  energy(sigma->0) =      -23.88929673


--------------------------------------------------------------------------------------------------------




--------------------------------------- Iteration      1(  12)  ---------------------------------------


    POTLOK:  cpu time    1.4196: real time    1.4229
    SETDIJ:  cpu time    0.0064: real time    0.0064
     EDDAV:  cpu time    0.6635: real time    0.6650
       DOS:  cpu time    0.0001: real time    0.0001
    CHARGE:  cpu time    0.0850: real time    0.0852
    MIXING:  cpu time    0.0381: real time    0.0382
    --------------------------------------------
      LOOP:  cpu time    2.2126: real time    2.2178

 eigenvalue-minimisations  :    24
 total energy-change (2. order) :-0.4017337E-02  (-0.5715629E-04)
 number of electron       8.0000000 magnetization 
 augmentation part        0.1832185 magnetization 

 Broyden mixing:
  rms(total) = 0.23931E-02    rms(broyden)= 0.23931E-02
  rms(prec ) = 0.52693E-02
  weight for this iteration     100.00

 eigenvalues of (default mixing * dielectric matrix)
  average eigenvalue GAMMA=   2.2300
  4.9582  2.6744  2.6744  2.0243  1.2059  1.0365  1.0365

 Free energy of the ion-electron system (eV)
  ---------------------------------------------------
  alpha Z        PSCENC =         0.24311671
  Ewald energy   TEWEN  =       127.23689155
  -Hartree energ DENC   =      -282.99621317
  -exchange      EXHF   =         0.00000000
  -V(xc)+E(xc)   XCENC  =        24.66630057
  PAW double counting   =       456.77517389     -457.55745416
  entropy T*S    EENTRO =        -0.00000000
  eigenvalues    EBANDS =       -89.30288399
  atomic energy  EATOM  =       197.04175453
  Solvation  Ediel_sol  =         0.00000000
  ---------------------------------------------------
  free energy    TOTEN  =       -23.89331407 eV

  energy without entropy =      -23.89331407  energy(sigma->0) =      -23.89331407


--------------------------------------------------------------------------------------------------------




--------------------------------------- Iteration      1(  13)  ---------------------------------------


    POTLOK:  cpu time    1.3766: real time    1.3799
    SETDIJ:  cpu time    0.0064: real time    0.0064
     EDDAV:  cpu time    0.8609: real time    0.8629
       DOS:  cpu time    0.0001: real time    0.0001
    CHARGE:  cpu time    0.0889: real time    0.0891
    MIXING:  cpu time    0.0385: real time    0.0386
    --------------------------------------------
      LOOP:  cpu time    2.3713: real time    2.3769

 eigenvalue-minimisations  :    32
 total energy-change (2. order) :-0.3635795E-02  (-0.6722342E-04)
 number of electron       8.0000000 magnetization 
 augmentation part        0.1832051 magnetization 

 Broyden mixing:
  rms(total) = 0.15472E-02    rms(broyden)= 0.15470E-02
  rms(prec ) = 0.28334E-02
  weight for this iteration     100.00

 eigenvalues of (default mixing * dielectric matrix)
  average eigenvalue GAMMA=   2.2677
  5.7787  3.4423  2.2013  2.2013  1.3286  1.0248  1.0248  1.1398

 Free energy of the ion-electron system (eV)
  ---------------------------------------------------
  alpha Z        PSCENC =         0.24311671
  Ewald energy   TEWEN  =       127.23689155
  -Hartree energ DENC   =      -283.07571128
  -exchange      EXHF   =         0.00000000
  -V(xc)+E(xc)   XCENC  =        24.66592795
  PAW double counting   =       458.37449657     -459.15618499
  entropy T*S    EENTRO =        -0.00000000
  eigenvalues    EBANDS =       -89.22724090
  atomic energy  EATOM  =       197.04175453
  Solvation  Ediel_sol  =         0.00000000
  ---------------------------------------------------
  free energy    TOTEN  =       -23.89694987 eV

  energy without entropy =      -23.89694987  energy(sigma->0) =      -23.89694987


--------------------------------------------------------------------------------------------------------




--------------------------------------- Iteration      1(  14)  ---------------------------------------


    POTLOK:  cpu time    1.3555: real time    1.3587
    SETDIJ:  cpu time    0.0064: real time    0.0064
     EDDAV:  cpu time    0.4774: real time    0.4786
       DOS:  cpu time    0.0001: real time    0.0001
    CHARGE:  cpu time    0.0875: real time    0.0877
    MIXING:  cpu time    0.0387: real time    0.0388
    --------------------------------------------
      LOOP:  cpu time    1.9656: real time    1.9703

 eigenvalue-minimisations  :    16
 total energy-change (2. order) :-0.1090473E-02  (-0.1333219E-04)
 number of electron       8.0000000 magnetization 
 augmentation part        0.1831888 magnetization 

 Broyden mixing:
  rms(total) = 0.90980E-03    rms(broyden)= 0.90967E-03
  rms(prec ) = 0.16460E-02
  weight for this iteration     100.00

 eigenvalues of (default mixing * dielectric matrix)
  average eigenvalue GAMMA=   2.6003
  7.1747  4.4353  3.0781  2.4071  1.9676  1.2518  1.0026  1.0026  1.0830

 Free energy of the ion-electron system (eV)
  ---------------------------------------------------
  alpha Z        PSCENC =         0.24311671
  Ewald energy   TEWEN  =       127.23689155
  -Hartree energ DENC   =      -283.03584128
  -exchange      EXHF   =         0.00000000
  -V(xc)+E(xc)   XCENC  =        24.66002625
  PAW double counting   =       457.87155930     -458.65363176
  entropy T*S    EENTRO =        -0.00000000
  eigenvalues    EBANDS =       -89.26191564
  atomic energy  EATOM  =       197.04175453
  Solvation  Ediel_sol  =         0.00000000
  ---------------------------------------------------
  free energy    TOTEN  =       -23.89804034 eV

  energy without entropy =      -23.89804034  energy(sigma->0) =      -23.89804034


--------------------------------------------------------------------------------------------------------




--------------------------------------- Iteration      1(  15)  ---------------------------------------


    POTLOK:  cpu time    1.3585: real time    1.3617
    SETDIJ:  cpu time    0.0065: real time    0.0065
     EDDAV:  cpu time    0.8540: real time    0.8560
       DOS:  cpu time    0.0001: real time    0.0001
    CHARGE:  cpu time    0.0954: real time    0.0956
    MIXING:  cpu time    0.0423: real time    0.0424
    --------------------------------------------
      LOOP:  cpu time    2.3568: real time    2.3624

 eigenvalue-minimisations  :    32
 total energy-change (2. order) :-0.6093103E-03  (-0.7579433E-05)
 number of electron       8.0000000 magnetization 
 augmentation part        0.1831762 magnetization 

 Broyden mixing:
  rms(total) = 0.55713E-03    rms(broyden)= 0.55710E-03
  rms(prec ) = 0.73004E-03
  weight for this iteration     100.00

 eigenvalues of (default mixing * dielectric matrix)
  average eigenvalue GAMMA=   2.4033
  7.1396  4.4897  2.8933  2.3299  1.9130  1.3035  1.1182  1.0145  1.0145  0.8165

 Free energy of the ion-electron system (eV)
  ---------------------------------------------------
  alpha Z        PSCENC =         0.24311671
  Ewald energy   TEWEN  =       127.23689155
  -Hartree energ DENC   =      -283.05207129
  -exchange      EXHF   =         0.00000000
  -V(xc)+E(xc)   XCENC  =        24.66066419
  PAW double counting   =       457.71013783     -458.49207491
  entropy T*S    EENTRO =        -0.00000000
  eigenvalues    EBANDS =       -89.24706826
  atomic energy  EATOM  =       197.04175453
  Solvation  Ediel_sol  =         0.00000000
  ---------------------------------------------------
  free energy    TOTEN  =       -23.89864965 eV

  energy without entropy =      -23.89864965  energy(sigma->0) =      -23.89864965


--------------------------------------------------------------------------------------------------------




--------------------------------------- Iteration      1(  16)  ---------------------------------------


    POTLOK:  cpu time    1.3505: real time    1.3538
    SETDIJ:  cpu time    0.0065: real time    0.0065
     EDDAV:  cpu time    0.4721: real time    0.4732
       DOS:  cpu time    0.0001: real time    0.0001
    CHARGE:  cpu time    0.0832: real time    0.0834
    MIXING:  cpu time    0.0407: real time    0.0408
    --------------------------------------------
      LOOP:  cpu time    1.9530: real time    1.9577

 eigenvalue-minimisations  :    16
 total energy-change (2. order) :-0.2087523E-04  (-0.2105260E-06)
 number of electron       8.0000000 magnetization 
 augmentation part        0.1831801 magnetization 

 Broyden mixing:
  rms(total) = 0.23503E-03    rms(broyden)= 0.23499E-03
  rms(prec ) = 0.40397E-03
  weight for this iteration     100.00

 eigenvalues of (default mixing * dielectric matrix)
  average eigenvalue GAMMA=   2.6578
  8.2013  4.9172  3.8946  2.6508  2.4066  1.8241  1.3091  1.1022  1.0205  0.9967
  0.9128

 Free energy of the ion-electron system (eV)
  ---------------------------------------------------
  alpha Z        PSCENC =         0.24311671
  Ewald energy   TEWEN  =       127.23689155
  -Hartree energ DENC   =      -283.05432259
  -exchange      EXHF   =         0.00000000
  -V(xc)+E(xc)   XCENC  =        24.66101949
  PAW double counting   =       457.87892483     -458.66079593
  entropy T*S    EENTRO =        -0.00000000
  eigenvalues    EBANDS =       -89.24525912
  atomic energy  EATOM  =       197.04175453
  Solvation  Ediel_sol  =         0.00000000
  ---------------------------------------------------
  free energy    TOTEN  =       -23.89867053 eV

  energy without entropy =      -23.89867053  energy(sigma->0) =      -23.89867053


--------------------------------------------------------------------------------------------------------




--------------------------------------- Iteration      1(  17)  ---------------------------------------


    POTLOK:  cpu time    1.4280: real time    1.4314
    SETDIJ:  cpu time    0.0062: real time    0.0062
     EDDAV:  cpu time    0.4611: real time    0.4622
       DOS:  cpu time    0.0001: real time    0.0001
    CHARGE:  cpu time    0.0853: real time    0.0855
    MIXING:  cpu time    0.0391: real time    0.0392
    --------------------------------------------
      LOOP:  cpu time    2.0199: real time    2.0247

 eigenvalue-minimisations  :    16
 total energy-change (2. order) :-0.8441370E-04  (-0.4281369E-06)
 number of electron       8.0000000 magnetization 
 augmentation part        0.1831772 magnetization 

 Broyden mixing:
  rms(total) = 0.12381E-03    rms(broyden)= 0.12380E-03
  rms(prec ) = 0.16920E-03
  weight for this iteration     100.00

 eigenvalues of (default mixing * dielectric matrix)
  average eigenvalue GAMMA=   2.5106
  8.3289  5.0885  3.7076  2.7025  2.3263  1.8569  1.3119  1.1084  1.0159  1.0159
  0.8322  0.8322

 Free energy of the ion-electron system (eV)
  ---------------------------------------------------
  alpha Z        PSCENC =         0.24311671
  Ewald energy   TEWEN  =       127.23689155
  -Hartree energ DENC   =      -283.06378494
  -exchange      EXHF   =         0.00000000
  -V(xc)+E(xc)   XCENC  =        24.66142015
  PAW double counting   =       457.80197388     -458.58387862
  entropy T*S    EENTRO =        -0.00000000
  eigenvalues    EBANDS =       -89.23624819
  atomic energy  EATOM  =       197.04175453
  Solvation  Ediel_sol  =         0.00000000
  ---------------------------------------------------
  free energy    TOTEN  =       -23.89875494 eV

  energy without entropy =      -23.89875494  energy(sigma->0) =      -23.89875494


--------------------------------------------------------------------------------------------------------




--------------------------------------- Iteration      1(  18)  ---------------------------------------


    POTLOK:  cpu time    1.4009: real time    1.4043
    SETDIJ:  cpu time    0.0062: real time    0.0062
     EDDAV:  cpu time    0.8256: real time    0.8276
       DOS:  cpu time    0.0001: real time    0.0001
    CHARGE:  cpu time    0.0824: real time    0.0826
    MIXING:  cpu time    0.0415: real time    0.0416
    --------------------------------------------
      LOOP:  cpu time    2.3567: real time    2.3623

 eigenvalue-minimisations  :    32
 total energy-change (2. order) :-0.2482732E-05  (-0.1501339E-07)
 number of electron       8.0000000 magnetization 
 augmentation part        0.1831791 magnetization 

 Broyden mixing:
  rms(total) = 0.52434E-04    rms(broyden)= 0.52427E-04
  rms(prec ) = 0.87525E-04
  weight for this iteration     100.00

 eigenvalues of (default mixing * dielectric matrix)
  average eigenvalue GAMMA=   2.5925
  8.4773  5.3516  3.6744  2.7732  2.7732  2.3919  1.9150  1.3226  1.1222  1.0028
  1.0028  0.9206  0.9751

 Free energy of the ion-electron system (eV)
  ---------------------------------------------------
  alpha Z        PSCENC =         0.24311671
  Ewald energy   TEWEN  =       127.23689155
  -Hartree energ DENC   =      -283.05888207
  -exchange      EXHF   =         0.00000000
  -V(xc)+E(xc)   XCENC  =        24.66104135
  PAW double counting   =       457.78004000     -458.56194896
  entropy T*S    EENTRO =        -0.00000000
  eigenvalues    EBANDS =       -89.24077054
  atomic energy  EATOM  =       197.04175453
  Solvation  Ediel_sol  =         0.00000000
  ---------------------------------------------------
  free energy    TOTEN  =       -23.89875742 eV

  energy without entropy =      -23.89875742  energy(sigma->0) =      -23.89875742


--------------------------------------------------------------------------------------------------------




--------------------------------------- Iteration      1(  19)  ---------------------------------------


    POTLOK:  cpu time    1.4255: real time    1.4289
    SETDIJ:  cpu time    0.0060: real time    0.0060
     EDDAV:  cpu time    0.4487: real time    0.4497
       DOS:  cpu time    0.0001: real time    0.0001
    CHARGE:  cpu time    0.0778: real time    0.0780
    MIXING:  cpu time    0.0438: real time    0.0439
    --------------------------------------------
      LOOP:  cpu time    2.0019: real time    2.0067

 eigenvalue-minimisations  :    16
 total energy-change (2. order) :-0.5407524E-05  (-0.2307921E-07)
 number of electron       8.0000000 magnetization 
 augmentation part        0.1831789 magnetization 

 Broyden mixing:
  rms(total) = 0.27298E-04    rms(broyden)= 0.27293E-04
  rms(prec ) = 0.43088E-04
  weight for this iteration     100.00

 eigenvalues of (default mixing * dielectric matrix)
  average eigenvalue GAMMA=   2.4869
  8.5279  5.4061  3.9820  2.9666  2.5361  2.2817  1.7424  1.3857  1.1534  1.0051
  1.0051  0.9725  0.9259  0.9259

 Free energy of the ion-electron system (eV)
  ---------------------------------------------------
  alpha Z        PSCENC =         0.24311671
  Ewald energy   TEWEN  =       127.23689155
  -Hartree energ DENC   =      -283.05881624
  -exchange      EXHF   =         0.00000000
  -V(xc)+E(xc)   XCENC  =        24.66099566
  PAW double counting   =       457.79845435     -458.58035910
  entropy T*S    EENTRO =        -0.00000000
  eigenvalues    EBANDS =       -89.24080030
  atomic energy  EATOM  =       197.04175453
  Solvation  Ediel_sol  =         0.00000000
  ---------------------------------------------------
  free energy    TOTEN  =       -23.89876283 eV

  energy without entropy =      -23.89876283  energy(sigma->0) =      -23.89876283


--------------------------------------------------------------------------------------------------------




--------------------------------------- Iteration      1(  20)  ---------------------------------------


    POTLOK:  cpu time    1.4233: real time    1.4267
    SETDIJ:  cpu time    0.0062: real time    0.0062
     EDDAV:  cpu time    0.8019: real time    0.8038
       DOS:  cpu time    0.0001: real time    0.0001
    --------------------------------------------
      LOOP:  cpu time    2.2315: real time    2.2368

 eigenvalue-minimisations  :    32
 total energy-change (2. order) :-0.2760451E-06  (-0.1178453E-08)
 number of electron       8.0000000 magnetization 
 augmentation part        0.1831789 magnetization 

 Free energy of the ion-electron system (eV)
  ---------------------------------------------------
  alpha Z        PSCENC =         0.24311671
  Ewald energy   TEWEN  =       127.23689155
  -Hartree energ DENC   =      -283.05938932
  -exchange      EXHF   =         0.00000000
  -V(xc)+E(xc)   XCENC  =        24.66103190
  PAW double counting   =       457.79940142     -458.58130631
  entropy T*S    EENTRO =        -0.00000000
  eigenvalues    EBANDS =       -89.24026358
  atomic energy  EATOM  =       197.04175453
  Solvation  Ediel_sol  =         0.00000000
  ---------------------------------------------------
  free energy    TOTEN  =       -23.89876311 eV

  energy without entropy =      -23.89876311  energy(sigma->0) =      -23.89876311


--------------------------------------------------------------------------------------------------------




 average (electrostatic) potential at core
  the test charge radii are     0.5201  0.6991
  (the norm of the test charge is              1.0000)
       1 -41.1268       2 -41.7752       3 -41.4695       4 -41.5568       5 -58.0175



 E-fermi :  -8.4233     XC(G=0):  -0.7054     alpha+bet : -0.2114


 k-point     1 :       0.0000    0.0000    0.0000
  band No.  band energies     occupation 
      1     -16.8641      2.00000
      2      -9.7504      2.00000
      3      -9.3304      2.00000
      4      -8.6753      2.00000
      5      -0.5444      0.00000
      6       0.9754      0.00000
      7       0.9912      0.00000
      8       1.0608      0.00000


--------------------------------------------------------------------------------------------------------


 soft charge-density along one line, spin component           1
         0         1         2         3         4         5         6         7         8         9
 total charge-density along one line

 pseudopotential strength for first ion, spin component:           1
 -2.337  -4.026  -0.001  -0.000  -0.001
 -4.026  -6.850  -0.003  -0.001  -0.004
 -0.001  -0.003  -0.340   0.000   0.002
 -0.000  -0.001   0.000  -0.341   0.000
 -0.001  -0.004   0.002   0.000  -0.338
 total augmentation occupancy for first ion, spin component:           1
  3.405  -0.615   0.216   0.051   0.314
 -0.615   0.127  -0.040  -0.010  -0.059
  0.216  -0.040   0.019   0.003   0.016
  0.051  -0.010   0.003   0.009   0.004
  0.314  -0.059   0.016   0.004   0.032


------------------------ aborting loop because EDIFF is reached ----------------------------------------


    CHARGE:  cpu time    0.0774: real time    0.0775
    FORLOC:  cpu time    0.1045: real time    0.1048
    FORNL :  cpu time    0.1553: real time    0.1556
    STRESS:  cpu time    0.5730: real time    0.5743
    FORCOR:  cpu time    1.6354: real time    1.6395
    FORHAR:  cpu time    0.4839: real time    0.4850
    MIXING:  cpu time    0.0428: real time    0.0429
    OFIELD:  cpu time    0.0000: real time    0.0000

  FORCE on cell =-STRESS in cart. coord.  units (eV):
  Direction    XX          YY          ZZ          XY          YZ          ZX
  --------------------------------------------------------------------------------------
  Alpha Z     0.24312     0.24312     0.24312
  Ewald      35.49111    50.91581    40.82995    -8.34758    -3.35585    -1.14808
  Hartree    92.53343    98.94411    91.58215    -1.75941    -0.38420    -0.42896
  E(xc)     -27.15008   -27.09316   -27.11859    -0.02799    -0.01334    -0.00563
  Local    -188.18959  -207.75379  -190.86926     8.18496     2.85727     1.43373
  n-local   -15.74781   -15.68822   -15.66987    -0.01710     0.01416    -0.02485
  augment     0.12789     0.11173     0.11592     0.01493     0.00711     0.00052
  Kinetic   102.30856    99.31567   100.35371     1.61355     0.69575     0.35660
  Fock        0.00000     0.00000     0.00000     0.00000     0.00000     0.00000
  -------------------------------------------------------------------------------------
  Total      -0.38337    -1.00474    -0.53288    -0.33864    -0.17910     0.18333
  in kB      -0.61643    -1.61552    -0.85682    -0.54450    -0.28798     0.29478
  external pressure =       -1.03 kB  Pullay stress =        0.00 kB


 VOLUME and BASIS-vectors are now :
 -----------------------------------------------------------------------------
  energy-cutoff  :      400.00
  volume of cell :      996.44
      direct lattice vectors                 reciprocal lattice vectors
    10.006619500  0.000000000  0.000000000     0.099933849  0.002269562  0.000748798
    -0.221244500  9.741885200  0.000000000     0.000000000  0.102649536 -0.002424515
    -0.082073000  0.241428100 10.221626300     0.000000000 -0.000000000  0.097831790

  length of vectors
    10.006619500  9.744397179 10.224806488     0.099962422  0.102678165  0.097831790


 FORCES acting on ions
    electron-ion (+dipol)            ewald-force                    non-local-force                 convergence-correction
 -----------------------------------------------------------------------------------------------
   0.419E+02 0.288E+02 0.686E+01   -.453E+02 -.310E+02 -.746E+01   0.399E+01 0.276E+01 0.641E+00   -.124E-04 0.221E-05 -.597E-05
   -.363E+02 0.356E+02 -.168E+02   0.409E+02 -.395E+02 0.189E+02   -.377E+01 0.407E+01 -.181E+01   0.111E-04 0.389E-04 0.535E-05
   0.144E+02 -.361E+02 -.349E+02   -.155E+02 0.395E+02 0.383E+02   0.167E+01 -.366E+01 -.353E+01   0.245E-04 -.128E-04 0.178E-04
   -.926E+01 -.224E+02 0.468E+02   0.105E+02 0.247E+02 -.516E+02   -.772E+00 -.231E+01 0.494E+01   0.209E-04 -.772E-05 -.795E-05
   -.922E+01 -.575E+01 -.178E+01   0.935E+01 0.631E+01 0.184E+01   -.262E+01 -.940E+00 -.391E+00   0.479E-04 0.596E-05 0.171E-04
 -----------------------------------------------------------------------------------------------
   0.149E+01 0.952E-01 0.151E+00   -.533E-14 0.000E+00 0.000E+00   -.149E+01 -.951E-01 -.150E+00   0.920E-04 0.265E-04 0.264E-04


 POSITION                                       TOTAL-FORCE (eV/Angst)
 -----------------------------------------------------------------------------------
      3.98327      4.04446      4.39293         0.570030      0.538233      0.037693
      5.62878      3.95059      4.88126         0.873932      0.117902      0.225472
      4.58910      5.43981      5.28280         0.581700     -0.239037     -0.091042
      5.08841      5.14071      3.56459         0.461207     -0.036261      0.163215
      4.91169      4.67967      4.54446        -2.486869     -0.380837     -0.335338
 -----------------------------------------------------------------------------------
    total drift:                               -0.000521      0.000110      0.000329


--------------------------------------------------------------------------------------------------------



  FREE ENERGIE OF THE ION-ELECTRON SYSTEM (eV)
  ---------------------------------------------------
  free  energy   TOTEN  =       -23.89876311 eV

  energy  without entropy=      -23.89876311  energy(sigma->0) =      -23.89876311



--------------------------------------------------------------------------------------------------------


    POTLOK:  cpu time    1.4560: real time    1.4594


--------------------------------------------------------------------------------------------------------


     LOOP+:  cpu time   43.7474: real time   43.8552
    4ORBIT:  cpu time    0.0000: real time    0.0000

 total amount of memory used by VASP MPI-rank0   274696. kBytes
=======================================================================

   base      :      30000. kBytes
   nonlr-proj:       1236. kBytes
   fftplans  :      86584. kBytes
   grid      :     154542. kBytes
   one-center:         15. kBytes
   wavefun   :       2319. kBytes

  
  
 General timing and accounting informations for this job:
 ========================================================
  
                  Total CPU time used (sec):       45.547
                            User time (sec):       44.218
                          System time (sec):        1.329
                         Elapsed time (sec):       45.687
  
                   Maximum memory used (kb):      388772.
                   Average memory used (kb):           0.
  
                          Minor page faults:       176697
                          Major page faults:            0
                 Voluntary context switches:          196
