ITEM: TIMESTEP
100
ITEM: NUMBER OF ATOMS
5
ITEM: BOX BOUNDS xy xz yz pp pp pp
0.0000000000000000e+00 1.0289339300000000e+01 3.6749900000000002e-02
-5.6322200000000003e-02 1.0263123500000001e+01 1.3833060000000000e-01
0.0000000000000000e+00 1.0216793100000000e+01 -5.6322200000000003e-02
ITEM: ATOMS id type x y z 
1 1 4.87324 3.71424 4.2887 
2 1 4.75931 5.04004 5.54392 
3 1 4.77762 5.49592 3.73318 
4 1 6.29582 4.8294 4.58479 
5 2 5.15375 4.78108 4.5411 
