ITEM: TIMESTEP
1120
ITEM: NUMBER OF ATOMS
5
ITEM: BOX BOUNDS xy xz yz pp pp pp
0.0000000000000000e+00 1.0289339300000000e+01 3.6749900000000002e-02
-5.6322200000000003e-02 1.0263123500000001e+01 1.3833060000000000e-01
0.0000000000000000e+00 1.0216793100000000e+01 -5.6322200000000003e-02
ITEM: ATOMS id type x y z 
1 1 6.19117 4.32275 4.50646 
2 1 5.06845 5.56282 3.76684 
3 1 4.98428 5.23271 5.54493 
4 1 4.40128 3.9697 4.36834 
5 2 5.15882 4.78038 4.5381 
