ITEM: TIMESTEP
1220
ITEM: NUMBER OF ATOMS
5
ITEM: BOX BOUNDS xy xz yz pp pp pp
0.0000000000000000e+00 1.0289339300000000e+01 3.6749900000000002e-02
-5.6322200000000003e-02 1.0263123500000001e+01 1.3833060000000000e-01
0.0000000000000000e+00 1.0216793100000000e+01 -5.6322200000000003e-02
ITEM: ATOMS id type x y z 
1 1 5.84046 4.32629 3.78274 
2 1 4.20142 5.08519 4.06141 
3 1 5.66982 5.67164 4.98552 
4 1 4.93299 4.03078 5.34822 
5 2 5.15886 4.77822 4.53882 
