ITEM: TIMESTEP
1500
ITEM: NUMBER OF ATOMS
5
ITEM: BOX BOUNDS xy xz yz pp pp pp
0.0000000000000000e+00 1.0289339300000000e+01 3.6749900000000002e-02
-5.6322200000000003e-02 1.0263123500000001e+01 1.3833060000000000e-01
0.0000000000000000e+00 1.0216793100000000e+01 -5.6322200000000003e-02
ITEM: ATOMS id type x y z 
1 1 5.77673 4.0149 5.07594 
2 1 5.74966 5.72666 4.51036 
3 1 4.19048 4.94546 5.06122 
4 1 4.97417 4.41652 3.51214 
5 2 5.155 4.77908 4.54034 
