ITEM: TIMESTEP
280
ITEM: NUMBER OF ATOMS
5
ITEM: BOX BOUNDS xy xz yz pp pp pp
0.0000000000000000e+00 1.0289339300000000e+01 3.6749900000000002e-02
-5.6322200000000003e-02 1.0263123500000001e+01 1.3833060000000000e-01
0.0000000000000000e+00 1.0216793100000000e+01 -5.6322200000000003e-02
ITEM: ATOMS id type x y z 
1 1 5.8515 4.08066 5.05603 
2 1 5.67367 5.77765 4.41367 
3 1 4.26045 4.94026 5.17414 
4 1 4.81418 4.39064 3.54868 
5 2 5.1626 4.77194 4.5376 
