ITEM: TIMESTEP
2960
ITEM: NUMBER OF ATOMS
5
ITEM: BOX BOUNDS xy xz yz pp pp pp
0.0000000000000000e+00 1.0289339300000000e+01 3.6749900000000002e-02
-5.6322200000000003e-02 1.0263123500000001e+01 1.3833060000000000e-01
0.0000000000000000e+00 1.0216793100000000e+01 -5.6322200000000003e-02
ITEM: ATOMS id type x y z 
1 1 6.18 4.38411 4.40591 
2 1 4.97117 5.48521 3.71395 
3 1 5.07702 5.28392 5.52932 
4 1 4.44441 3.94525 4.46595 
5 2 5.15653 4.7795 4.54405 
