 vasp.5.4.4.18Apr17-6-g9f103f2a35 (build Jul 12 2018 13:43:46) complex           
 executed on             LinuxGNU date 2019.06.25  21:09:25
 running on    1 total cores
 distrk:  each k-point on    1 cores,    1 groups
 distr:  one band on NCORES_PER_BAND=   1 cores,    1 groups


--------------------------------------------------------------------------------------------------------


 INCAR:
 POTCAR:    PAW_PBE H 15Jun2001                   
 POTCAR:    PAW_PBE C 08Apr2002                   
 POTCAR:    PAW_PBE H 15Jun2001                   
   VRHFIN =H: ultrasoft test                                                    
   LEXCH  = PE                                                                  
   EATOM  =    12.4884 eV,    0.9179 Ry                                         
                                                                                
   TITEL  = PAW_PBE H 15Jun2001                                                 
   LULTRA =        F    use ultrasoft PP ?                                      
   IUNSCR =        0    unscreen: 0-lin 1-nonlin 2-no                           
   RPACOR =    0.000    partial core radius                                     
   POMASS =    1.000; ZVAL   =    1.000    mass and valenz                      
   RCORE  =    1.100    outmost cutoff radius                                   
   RWIGS  =    0.700; RWIGS  =    0.370    wigner-seitz radius (au A)           
   ENMAX  =  250.000; ENMIN  =  200.000 eV                                      
   RCLOC  =    0.701    cutoff for local pot                                    
   LCOR   =        T    correct aug charges                                     
   LPAW   =        T    paw PP                                                  
   EAUG   =  400.000                                                            
   RMAX   =    1.123    core radius for proj-oper                               
   RAUG   =    1.200    factor for augmentation sphere                          
   RDEP   =    1.112    radius for radial grids                                 
   RDEPT  =    0.926    core radius for aug-charge                              
                                                                                
   Atomic configuration                                                         
    2 entries                                                                   
     n  l   j            E        occ.                                          
     1  0  0.50        -6.4927   1.0000                                         
     2  1  0.50        -3.4015   0.0000                                         
   Description                                                                  
     l       E           TYP  RCUT    TYP  RCUT                                 
     0     -6.4927494     23  1.100                                             
     0      6.8029130     23  1.100                                             
     1     -4.0817478     23  1.100                                             
  local pseudopotential read in
  atomic valenz-charges read in
  non local Contribution for L=           0  read in
    real space projection operators read in
  non local Contribution for L=           0  read in
    real space projection operators read in
  non local Contribution for L=           1  read in
    real space projection operators read in
    PAW grid and wavefunctions read in

   number of l-projection  operators is LMAX  =           3
   number of lm-projection operators is LMMAX =           5

 POTCAR:    PAW_PBE C 08Apr2002                   
   VRHFIN =C: s2p2                                                              
   LEXCH  = PE                                                                  
   EATOM  =   147.1560 eV,   10.8157 Ry                                         
                                                                                
   TITEL  = PAW_PBE C 08Apr2002                                                 
   LULTRA =        F    use ultrasoft PP ?                                      
   IUNSCR =        1    unscreen: 0-lin 1-nonlin 2-no                           
   RPACOR =    1.200    partial core radius                                     
   POMASS =   12.011; ZVAL   =    4.000    mass and valenz                      
   RCORE  =    1.500    outmost cutoff radius                                   
   RWIGS  =    1.630; RWIGS  =    0.863    wigner-seitz radius (au A)           
   ENMAX  =  400.000; ENMIN  =  300.000 eV                                      
   ICORE  =        2    local potential                                         
   LCOR   =        T    correct aug charges                                     
   LPAW   =        T    paw PP                                                  
   EAUG   =  644.873                                                            
   DEXC   =    0.000                                                            
   RMAX   =    1.529    core radius for proj-oper                               
   RAUG   =    1.300    factor for augmentation sphere                          
   RDEP   =    1.501    radius for radial grids                                 
   RDEPT  =    1.300    core radius for aug-charge                              
                                                                                
   Atomic configuration                                                         
    4 entries                                                                   
     n  l   j            E        occ.                                          
     1  0  0.50      -273.3789   2.0000                                         
     2  0  0.50       -13.7508   2.0000                                         
     2  1  0.50        -5.2854   2.0000                                         
     3  2  1.50        -5.4423   0.0000                                         
   Description                                                                  
     l       E           TYP  RCUT    TYP  RCUT                                 
     0    -13.7508458     23  1.200                                             
     0     -8.2022199     23  1.200                                             
     1     -5.2854383     23  1.500                                             
     1     34.0145650     23  1.500                                             
     2     -5.4423304      7  1.500                                             
  local pseudopotential read in
  partial core-charges read in
  partial kinetic energy density read in
  atomic valenz-charges read in
  non local Contribution for L=           0  read in
    real space projection operators read in
  non local Contribution for L=           0  read in
    real space projection operators read in
  non local Contribution for L=           1  read in
    real space projection operators read in
  non local Contribution for L=           1  read in
    real space projection operators read in
    PAW grid and wavefunctions read in

   number of l-projection  operators is LMAX  =           4
   number of lm-projection operators is LMMAX =           8


 ----------------------------------------------------------------------------- 
|                                                                             |
|  ADVICE TO THIS USER RUNNING 'VASP/VAMP'   (HEAR YOUR MASTER'S VOICE ...):  |
|                                                                             |
|      You have a (more or less) 'small supercell' and for smaller cells      |
|      it is recommended  to use the reciprocal-space projection scheme!      |
|      The real space optimization is not  efficient for small cells and it   |
|      is also less accurate ...                                              |
|      Therefore set LREAL=.FALSE. in the  INCAR file                         |
|                                                                             |
 ----------------------------------------------------------------------------- 

 Optimization of the real space projectors (new method)

 maximal supplied QI-value         = 34.20
 optimisation between [QCUT,QGAM] = [  9.92, 20.18] = [ 27.55,114.04] Ry 
 Optimized for a Real-space Cutoff    1.34 Angstroem

   l    n(q)    QCUT    max X(q) W(low)/X(q) W(high)/X(q)  e(spline) 
   0      8     9.919    19.460    0.16E-03    0.20E-03    0.36E-06
   0      8     9.919    12.209    0.16E-03    0.20E-03    0.35E-06
   1      8     9.919     4.655    0.19E-03    0.46E-03    0.40E-06
 Optimization of the real space projectors (new method)

 maximal supplied QI-value         = 25.13
 optimisation between [QCUT,QGAM] = [ 10.05, 20.36] = [ 28.30,116.06] Ry 
 Optimized for a Real-space Cutoff    1.51 Angstroem

   l    n(q)    QCUT    max X(q) W(low)/X(q) W(high)/X(q)  e(spline) 
   0      9    10.053   115.676    0.19E-03    0.21E-03    0.38E-06
   0      9    10.053    87.132    0.19E-03    0.21E-03    0.38E-06
   1      9    10.053     4.429    0.87E-04    0.11E-03    0.39E-06
   1      9    10.053     2.733    0.59E-04    0.62E-04    0.43E-06
  PAW_PBE H 15Jun2001                   :
 energy of atom  1       EATOM=  -12.4884
 kinetic energy error for atom=    0.0098 (will be added to EATOM!!)
  PAW_PBE C 08Apr2002                   :
 energy of atom  2       EATOM= -147.1560
 kinetic energy error for atom=    0.0288 (will be added to EATOM!!)


 POSCAR: POSCAR file written by OVITO            
  positions in cartesian coordinates
  No initial velocities read in
 exchange correlation table for  LEXCH =        8
   RHO(1)=    0.500       N(1)  =     2000
   RHO(2)=  100.500       N(2)  =     4000



--------------------------------------------------------------------------------------------------------


 ion  position               nearest neighbor table
   1  0.416  0.423  0.396-   5 1.11
   2  0.524  0.388  0.517-   5 1.07
   3  0.465  0.570  0.483-   5 1.14
   4  0.578  0.489  0.367-   5 1.10
   5  0.505  0.469  0.445-   2 1.07   4 1.10   1 1.11   3 1.14


IMPORTANT INFORMATION: All symmetrisations will be switched off!
NOSYMM: (Re-)initialisation of all symmetry stuff for point group C_1.




Automatic generation of k-mesh.
 generate k-points for:    1    1    1
Space group operators:
 irot       det(A)        alpha          n_x          n_y          n_z        tau_x        tau_y        tau_z
    1     1.000000     0.000000     1.000000     0.000000     0.000000     0.000000     0.000000     0.000000
 
 Subroutine IBZKPT returns following result:
 ===========================================
 
 Found      1 irreducible k-points:
 
 Following reciprocal coordinates:
            Coordinates               Weight
  0.000000  0.000000  0.000000      1.000000
 
 Following cartesian coordinates:
            Coordinates               Weight
  0.000000  0.000000  0.000000      1.000000
 


--------------------------------------------------------------------------------------------------------




 Dimension of arrays:
   k-points           NKPTS =      1   k-points in BZ     NKDIM =      1   number of bands    NBANDS=      8
   number of dos      NEDOS =    301   number of ions     NIONS =      5
   non local maximal  LDIM  =      4   non local SUM 2l+1 LMDIM =      8
   total plane-waves  NPLWV = 313600
   max r-space proj   IRMAX =   4575   max aug-charges    IRDMAX=   3913
   dimension x,y,z NGX =    70 NGY =   64 NGZ =   70
   dimension x,y,z NGXF=   140 NGYF=  128 NGZF=  140
   support grid    NGXF=   140 NGYF=  128 NGZF=  140
   ions per type =               4   1
   NGX,Y,Z   is equivalent  to a cutoff of  11.63, 10.92, 11.38 a.u.
   NGXF,Y,Z  is equivalent  to a cutoff of  23.26, 21.84, 22.76 a.u.

 SYSTEM =  unknown system                          
 POSCAR =  POSCAR file written by OVITO            

 Startparameter for this run:
   NWRITE =      2    write-flag & timer
   PREC   = a         normal or accurate (medium, high low for compatibility)
   ISTART =      0    job   : 0-new  1-cont  2-samecut
   ICHARG =      2    charge: 1-file 2-atom 10-const
   ISPIN  =      1    spin polarized calculation?
   LNONCOLLINEAR =      F non collinear calculations
   LSORBIT =      F    spin-orbit coupling
   INIWAV =      1    electr: 0-lowe 1-rand  2-diag
   LASPH  =      F    aspherical Exc in radial PAW
   METAGGA=      F    non-selfconsistent MetaGGA calc.

 Electronic Relaxation 1
   ENCUT  =  400.0 eV  29.40 Ry    5.42 a.u.  16.32 15.89 16.67*2*pi/ulx,y,z
   ENINI  =  400.0     initial cutoff
   ENAUG  =  644.9 eV  augmentation charge cutoff
   NELM   =    120;   NELMIN=  4; NELMDL= -5     # of ELM steps 
   EDIFF  = 0.1E-05   stopping-criterion for ELM
   LREAL  =      T    real-space projection
   NLSPLINE    = F    spline interpolate recip. space projectors
   LCOMPAT=      F    compatible to vasp.4.4
   GGA_COMPAT  = T    GGA compatible to vasp.4.4-vasp.4.6
   LMAXPAW     = -100 max onsite density
   LMAXMIX     =    2 max onsite mixed and CHGCAR
   VOSKOWN=      0    Vosko Wilk Nusair interpolation
   ROPT   =   -0.00025  -0.00025
 Ionic relaxation
   EDIFFG = 0.1E-04   stopping-criterion for IOM
   NSW    =      0    number of steps for IOM
   NBLOCK =      1;   KBLOCK =      1    inner block; outer block 
   IBRION =     -1    ionic relax: 0-MD 1-quasi-New 2-CG
   NFREE  =      0    steps in history (QN), initial steepest desc. (CG)
   ISIF   =      2    stress and relaxation
   IWAVPR =     10    prediction:  0-non 1-charg 2-wave 3-comb
   ISYM   =      0    0-nonsym 1-usesym 2-fastsym
   LCORR  =      T    Harris-Foulkes like correction to forces

   POTIM  = 0.5000    time-step for ionic-motion
   TEIN   =    0.0    initial temperature
   TEBEG  =    0.0;   TEEND  =   0.0 temperature during run
   SMASS  =  -3.00    Nose mass-parameter (am)
   estimated Nose-frequenzy (Omega)   =  0.10E-29 period in steps =****** mass=  -0.229E-26a.u.
   SCALEE = 1.0000    scale energy and forces
   NPACO  =    256;   APACO  = 16.0  distance and # of slots for P.C.
   PSTRESS=    0.0 pullay stress

  Mass of Ions in am
   POMASS =   1.00 12.01
  Ionic Valenz
   ZVAL   =   1.00  4.00
  Atomic Wigner-Seitz radii
   RWIGS  =  -1.00 -1.00
  virtual crystal weights 
   VCA    =   1.00  1.00
   NELECT =       8.0000    total number of electrons
   NUPDOWN=      -1.0000    fix difference up-down

 DOS related values:
   EMIN   =  10.00;   EMAX   =-10.00  energy-range for DOS
   EFERMI =   0.00
   ISMEAR =     0;   SIGMA  =   0.05  broadening in eV -4-tet -1-fermi 0-gaus

 Electronic relaxation 2 (details)
   IALGO  =     38    algorithm
   LDIAG  =      T    sub-space diagonalisation (order eigenvalues)
   LSUBROT=      F    optimize rotation matrix (better conditioning)
   TURBO    =      0    0=normal 1=particle mesh
   IRESTART =      0    0=no restart 2=restart with 2 vectors
   NREBOOT  =      0    no. of reboots
   NMIN     =      0    reboot dimension
   EREF     =   0.00    reference energy to select bands
   IMIX   =      4    mixing-type and parameters
     AMIX     =   0.40;   BMIX     =  1.00
     AMIX_MAG =   1.60;   BMIX_MAG =  1.00
     AMIN     =   0.10
     WC   =   100.;   INIMIX=   1;  MIXPRE=   1;  MAXMIX= -45

 Intra band minimization:
   WEIMIN = 0.0000     energy-eigenvalue tresh-hold
   EBREAK =  0.31E-07  absolut break condition
   DEPER  =   0.30     relativ break condition  

   TIME   =   0.40     timestep for ELM

  volume/ion in A,a.u.               =     199.29      1344.86
  Fermi-wavevector in a.u.,A,eV,Ry     =   0.327809  0.619470  1.462068  0.107459
  Thomas-Fermi vector in A             =   1.220856

 Write flags
   LWAVE        =      F    write WAVECAR
   LDOWNSAMPLE  =      F    k-point downsampling of WAVECAR
   LCHARG       =      F    write CHGCAR
   LVTOT        =      F    write LOCPOT, total local potential
   LVHAR        =      F    write LOCPOT, Hartree potential only
   LELF         =      F    write electronic localiz. function (ELF)
   LORBIT       =      0    0 simple, 1 ext, 2 COOP (PROOUT), +10 PAW based schemes


 Dipole corrections
   LMONO  =      F    monopole corrections only (constant potential shift)
   LDIPOL =      F    correct potential (dipole corrections)
   IDIPOL =      0    1-x, 2-y, 3-z, 4-all directions 
   EPSILON=  1.0000000 bulk dielectric constant

 Exchange correlation treatment:
   GGA     =    --    GGA type
   LEXCH   =     8    internal setting for exchange type
   VOSKOWN=      0    Vosko Wilk Nusair interpolation
   LHFCALC =     F    Hartree Fock is set to
   LHFONE  =     F    Hartree Fock one center treatment
   AEXX    =    0.0000 exact exchange contribution

 Linear response parameters
   LEPSILON=     F    determine dielectric tensor
   LRPA    =     F    only Hartree local field effects (RPA)
   LNABLA  =     F    use nabla operator in PAW spheres
   LVEL    =     F    velocity operator in full k-point grid
   LINTERFAST=   F  fast interpolation
   KINTER  =     0    interpolate to denser k-point grid
   CSHIFT  =0.1000    complex shift for real part using Kramers Kronig
   OMEGAMAX=  -1.0    maximum frequency
   DEG_THRESHOLD= 0.2000000E-02 threshold for treating states as degnerate
   RTIME   =   -0.100 relaxation time in fs
  (WPLASMAI=    0.000 imaginary part of plasma frequency in eV, 0.658/RTIME)
   DFIELD  = 0.0000000 0.0000000 0.0000000 field for delta impulse in time

 Orbital magnetization related:
   ORBITALMAG=     F  switch on orbital magnetization
   LCHIMAG   =     F  perturbation theory with respect to B field
   DQ        =  0.001000  dq finite difference perturbation B field
   LLRAUG    =     F  two centre corrections for induced B field



--------------------------------------------------------------------------------------------------------


 Static calculation
 charge density and potential will be updated during run
 non-spin polarized calculation
 Variant of blocked Davidson
 Davidson routine will perform the subspace rotation
 perform sub-space diagonalisation
    after iterative eigenvector-optimisation
 modified Broyden-mixing scheme, WC =      100.0
 initial mixing is a Kerker type mixing with AMIX =  0.4000 and BMIX =      1.0000
 Hartree-type preconditioning will be used
 using additional bands            4
 real space projection scheme for non local part
 use partial core corrections
 calculate Harris-corrections to forces   (improved forces if not selfconsistent)
 use gradient corrections 
 use of overlap-Matrix (Vanderbilt PP)
 Gauss-broadening in eV      SIGMA  =   0.05


--------------------------------------------------------------------------------------------------------


  energy-cutoff  :      400.00
  volume of cell :      996.44
      direct lattice vectors                 reciprocal lattice vectors
    10.006619500  0.000000000  0.000000000     0.099933849  0.002269562  0.000748798
    -0.221244500  9.741885200  0.000000000     0.000000000  0.102649536 -0.002424515
    -0.082073000  0.241428100 10.221626300     0.000000000 -0.000000000  0.097831790

  length of vectors
    10.006619500  9.744397179 10.224806488     0.099962422  0.102678165  0.097831790



 k-points in units of 2pi/SCALE and weight: read from INCAR                         
   0.00000000  0.00000000  0.00000000       1.000

 k-points in reciprocal lattice and weights: read from INCAR                         
   0.00000000  0.00000000  0.00000000       1.000

 position of ions in fractional coordinates (direct lattice) 
   0.41601820  0.42276114  0.39601622
   0.52354899  0.38849521  0.51665166
   0.46508072  0.56968933  0.48280184
   0.57817579  0.48879620  0.36749535
   0.50491578  0.46877207  0.44541835

 position of ions in cartesian coordinates  (Angst):
   4.03690000  4.21409990  4.04792980
   5.11060000  3.90941000  5.28102020
   4.48822020  5.66641000  4.93502000
   5.64728020  4.85052020  3.75640010
   4.91223000  4.67426020  4.55289990



--------------------------------------------------------------------------------------------------------


 k-point  1 :   0.0000 0.0000 0.0000  plane waves:   18093

 maximum and minimum number of plane-waves per node :     18093    18093

 maximum number of plane-waves:     18093
 maximum index in each direction: 
   IXMAX=   16   IYMAX=   15   IZMAX=   16
   IXMIN=  -16   IYMIN=  -15   IZMIN=  -16


 serial   3D FFT for wavefunctions
 parallel 3D FFT for charge:
    minimum data exchange during FFTs selected (reduces bandwidth)


 total amount of memory used by VASP MPI-rank0   274698. kBytes
=======================================================================

   base      :      30000. kBytes
   nonlr-proj:       1238. kBytes
   fftplans  :      86584. kBytes
   grid      :     154542. kBytes
   one-center:         15. kBytes
   wavefun   :       2319. kBytes

     INWAV:  cpu time    0.0000: real time    0.0000
 Broyden mixing: mesh for mixing (old mesh)
   NGX = 33   NGY = 31   NGZ = 33
  (NGX  =140   NGY  =128   NGZ  =140)
  gives a total of  33759 points

 initial charge density was supplied:
 charge density of overlapping atoms calculated
 number of electron       8.0000000 magnetization 
 keeping initial charge density in first step


--------------------------------------------------------------------------------------------------------


 Maximum index for non-local projection operator         4390
 Maximum index for augmentation-charges         3600 (set IRDMAX)


--------------------------------------------------------------------------------------------------------


 First call to EWALD:  gamma=   0.177
 Maximum number of real-space cells 3x 3x 3
 Maximum number of reciprocal cells 3x 3x 3

    FEWALD:  cpu time    0.0007: real time    0.0007


--------------------------------------- Iteration      1(   1)  ---------------------------------------


    POTLOK:  cpu time    1.5335: real time    1.5373
    SETDIJ:  cpu time    0.0062: real time    0.0062
     EDDAV:  cpu time    0.4404: real time    0.4415
       DOS:  cpu time    0.0001: real time    0.0001
    --------------------------------------------
      LOOP:  cpu time    1.9802: real time    1.9852

 eigenvalue-minimisations  :    16
 total energy-change (2. order) : 0.6211752E+02  (-0.1507866E+03)
 number of electron       8.0000000 magnetization 
 augmentation part        8.0000000 magnetization 

 Free energy of the ion-electron system (eV)
  ---------------------------------------------------
  alpha Z        PSCENC =         0.24311671
  Ewald energy   TEWEN  =       126.75630350
  -Hartree energ DENC   =      -242.96556032
  -exchange      EXHF   =         0.00000000
  -V(xc)+E(xc)   XCENC  =        21.96494480
  PAW double counting   =       117.05815612     -117.66307307
  entropy T*S    EENTRO =        -0.00000000
  eigenvalues    EBANDS =       -40.31812194
  atomic energy  EATOM  =       197.04175453
  Solvation  Ediel_sol  =         0.00000000
  ---------------------------------------------------
  free energy    TOTEN  =        62.11752033 eV

  energy without entropy =       62.11752033  energy(sigma->0) =       62.11752033


--------------------------------------------------------------------------------------------------------




--------------------------------------- Iteration      1(   2)  ---------------------------------------


     EDDAV:  cpu time    0.7774: real time    0.7794
       DOS:  cpu time    0.0001: real time    0.0001
    --------------------------------------------
      LOOP:  cpu time    0.7774: real time    0.7795

 eigenvalue-minimisations  :    32
 total energy-change (2. order) :-0.7544994E+02  (-0.7544994E+02)
 number of electron       8.0000000 magnetization 
 augmentation part        8.0000000 magnetization 

 Free energy of the ion-electron system (eV)
  ---------------------------------------------------
  alpha Z        PSCENC =         0.24311671
  Ewald energy   TEWEN  =       126.75630350
  -Hartree energ DENC   =      -242.96556032
  -exchange      EXHF   =         0.00000000
  -V(xc)+E(xc)   XCENC  =        21.96494480
  PAW double counting   =       117.05815612     -117.66307307
  entropy T*S    EENTRO =        -0.00000000
  eigenvalues    EBANDS =      -115.76806449
  atomic energy  EATOM  =       197.04175453
  Solvation  Ediel_sol  =         0.00000000
  ---------------------------------------------------
  free energy    TOTEN  =       -13.33242222 eV

  energy without entropy =      -13.33242222  energy(sigma->0) =      -13.33242222


--------------------------------------------------------------------------------------------------------




--------------------------------------- Iteration      1(   3)  ---------------------------------------


     EDDAV:  cpu time    0.4341: real time    0.4351
       DOS:  cpu time    0.0001: real time    0.0001
    --------------------------------------------
      LOOP:  cpu time    0.4342: real time    0.4353

 eigenvalue-minimisations  :    16
 total energy-change (2. order) :-0.1325588E+02  (-0.1325588E+02)
 number of electron       8.0000000 magnetization 
 augmentation part        8.0000000 magnetization 

 Free energy of the ion-electron system (eV)
  ---------------------------------------------------
  alpha Z        PSCENC =         0.24311671
  Ewald energy   TEWEN  =       126.75630350
  -Hartree energ DENC   =      -242.96556032
  -exchange      EXHF   =         0.00000000
  -V(xc)+E(xc)   XCENC  =        21.96494480
  PAW double counting   =       117.05815612     -117.66307307
  entropy T*S    EENTRO =        -0.00000000
  eigenvalues    EBANDS =      -129.02394170
  atomic energy  EATOM  =       197.04175453
  Solvation  Ediel_sol  =         0.00000000
  ---------------------------------------------------
  free energy    TOTEN  =       -26.58829944 eV

  energy without entropy =      -26.58829944  energy(sigma->0) =      -26.58829944


--------------------------------------------------------------------------------------------------------




--------------------------------------- Iteration      1(   4)  ---------------------------------------


     EDDAV:  cpu time    0.7978: real time    0.7997
       DOS:  cpu time    0.0001: real time    0.0001
    --------------------------------------------
      LOOP:  cpu time    0.7979: real time    0.7998

 eigenvalue-minimisations  :    32
 total energy-change (2. order) :-0.6430285E+00  (-0.6430285E+00)
 number of electron       8.0000000 magnetization 
 augmentation part        8.0000000 magnetization 

 Free energy of the ion-electron system (eV)
  ---------------------------------------------------
  alpha Z        PSCENC =         0.24311671
  Ewald energy   TEWEN  =       126.75630350
  -Hartree energ DENC   =      -242.96556032
  -exchange      EXHF   =         0.00000000
  -V(xc)+E(xc)   XCENC  =        21.96494480
  PAW double counting   =       117.05815612     -117.66307307
  entropy T*S    EENTRO =        -0.00000000
  eigenvalues    EBANDS =      -129.66697023
  atomic energy  EATOM  =       197.04175453
  Solvation  Ediel_sol  =         0.00000000
  ---------------------------------------------------
  free energy    TOTEN  =       -27.23132796 eV

  energy without entropy =      -27.23132796  energy(sigma->0) =      -27.23132796


--------------------------------------------------------------------------------------------------------




--------------------------------------- Iteration      1(   5)  ---------------------------------------


     EDDAV:  cpu time    0.8081: real time    0.8101
       DOS:  cpu time    0.0001: real time    0.0001
    CHARGE:  cpu time    0.0913: real time    0.0915
    MIXING:  cpu time    0.0327: real time    0.0327
    --------------------------------------------
      LOOP:  cpu time    0.9323: real time    0.9345

 eigenvalue-minimisations  :    32
 total energy-change (2. order) :-0.2628733E-03  (-0.2628733E-03)
 number of electron       8.0000000 magnetization 
 augmentation part        0.2218216 magnetization 

 Broyden mixing:
  rms(total) = 0.85450E+00    rms(broyden)= 0.85430E+00
  rms(prec ) = 0.12086E+01
  weight for this iteration     100.00

 Free energy of the ion-electron system (eV)
  ---------------------------------------------------
  alpha Z        PSCENC =         0.24311671
  Ewald energy   TEWEN  =       126.75630350
  -Hartree energ DENC   =      -242.96556032
  -exchange      EXHF   =         0.00000000
  -V(xc)+E(xc)   XCENC  =        21.96494480
  PAW double counting   =       117.05815612     -117.66307307
  entropy T*S    EENTRO =        -0.00000000
  eigenvalues    EBANDS =      -129.66723311
  atomic energy  EATOM  =       197.04175453
  Solvation  Ediel_sol  =         0.00000000
  ---------------------------------------------------
  free energy    TOTEN  =       -27.23159084 eV

  energy without entropy =      -27.23159084  energy(sigma->0) =      -27.23159084


--------------------------------------------------------------------------------------------------------




--------------------------------------- Iteration      1(   6)  ---------------------------------------


    POTLOK:  cpu time    1.5770: real time    1.5807
    SETDIJ:  cpu time    0.0065: real time    0.0065
     EDDAV:  cpu time    0.6168: real time    0.6183
       DOS:  cpu time    0.0001: real time    0.0001
    CHARGE:  cpu time    0.0810: real time    0.0812
    MIXING:  cpu time    0.0331: real time    0.0332
    --------------------------------------------
      LOOP:  cpu time    2.3144: real time    2.3199

 eigenvalue-minimisations  :    24
 total energy-change (2. order) : 0.2784414E+01  (-0.8677241E+00)
 number of electron       8.0000000 magnetization 
 augmentation part        0.1941710 magnetization 

 Broyden mixing:
  rms(total) = 0.43646E+00    rms(broyden)= 0.43635E+00
  rms(prec ) = 0.54697E+00
  weight for this iteration     100.00

 eigenvalues of (default mixing * dielectric matrix)
  average eigenvalue GAMMA=   1.1913
  1.1913

 Free energy of the ion-electron system (eV)
  ---------------------------------------------------
  alpha Z        PSCENC =         0.24311671
  Ewald energy   TEWEN  =       126.75630350
  -Hartree energ DENC   =      -262.32573820
  -exchange      EXHF   =         0.00000000
  -V(xc)+E(xc)   XCENC  =        23.13712309
  PAW double counting   =       235.45399950     -236.22891454
  entropy T*S    EENTRO =        -0.00000000
  eigenvalues    EBANDS =      -108.52482094
  atomic energy  EATOM  =       197.04175453
  Solvation  Ediel_sol  =         0.00000000
  ---------------------------------------------------
  free energy    TOTEN  =       -24.44717635 eV

  energy without entropy =      -24.44717635  energy(sigma->0) =      -24.44717635


--------------------------------------------------------------------------------------------------------




--------------------------------------- Iteration      1(   7)  ---------------------------------------


    POTLOK:  cpu time    1.5707: real time    1.5744
    SETDIJ:  cpu time    0.0064: real time    0.0064
     EDDAV:  cpu time    0.8134: real time    0.8153
       DOS:  cpu time    0.0001: real time    0.0001
    CHARGE:  cpu time    0.0828: real time    0.0830
    MIXING:  cpu time    0.0346: real time    0.0347
    --------------------------------------------
      LOOP:  cpu time    2.5080: real time    2.5139

 eigenvalue-minimisations  :    32
 total energy-change (2. order) : 0.4602051E+00  (-0.6842079E-01)
 number of electron       8.0000000 magnetization 
 augmentation part        0.1861590 magnetization 

 Broyden mixing:
  rms(total) = 0.22417E+00    rms(broyden)= 0.22413E+00
  rms(prec ) = 0.27589E+00
  weight for this iteration     100.00

 eigenvalues of (default mixing * dielectric matrix)
  average eigenvalue GAMMA=   1.6998
  1.2434  2.1562

 Free energy of the ion-electron system (eV)
  ---------------------------------------------------
  alpha Z        PSCENC =         0.24311671
  Ewald energy   TEWEN  =       126.75630350
  -Hartree energ DENC   =      -272.02479749
  -exchange      EXHF   =         0.00000000
  -V(xc)+E(xc)   XCENC  =        23.86835902
  PAW double counting   =       356.73648072     -357.53673359
  entropy T*S    EENTRO =        -0.00000000
  eigenvalues    EBANDS =       -99.07145469
  atomic energy  EATOM  =       197.04175453
  Solvation  Ediel_sol  =         0.00000000
  ---------------------------------------------------
  free energy    TOTEN  =       -23.98697128 eV

  energy without entropy =      -23.98697128  energy(sigma->0) =      -23.98697128


--------------------------------------------------------------------------------------------------------




--------------------------------------- Iteration      1(   8)  ---------------------------------------


    POTLOK:  cpu time    1.6082: real time    1.6120
    SETDIJ:  cpu time    0.0064: real time    0.0064
     EDDAV:  cpu time    0.8553: real time    0.8574
       DOS:  cpu time    0.0001: real time    0.0001
    CHARGE:  cpu time    0.0882: real time    0.0885
    MIXING:  cpu time    0.0354: real time    0.0355
    --------------------------------------------
      LOOP:  cpu time    2.5937: real time    2.5998

 eigenvalue-minimisations  :    32
 total energy-change (2. order) : 0.1603199E+00  (-0.1862097E-01)
 number of electron       8.0000000 magnetization 
 augmentation part        0.1836323 magnetization 

 Broyden mixing:
  rms(total) = 0.27414E-01    rms(broyden)= 0.27387E-01
  rms(prec ) = 0.55088E-01
  weight for this iteration     100.00

 eigenvalues of (default mixing * dielectric matrix)
  average eigenvalue GAMMA=   1.5555
  2.1381  1.1281  1.4002

 Free energy of the ion-electron system (eV)
  ---------------------------------------------------
  alpha Z        PSCENC =         0.24311671
  Ewald energy   TEWEN  =       126.75630350
  -Hartree energ DENC   =      -278.98149105
  -exchange      EXHF   =         0.00000000
  -V(xc)+E(xc)   XCENC  =        24.48705030
  PAW double counting   =       466.99731856     -467.78300243
  entropy T*S    EENTRO =        -0.00000000
  eigenvalues    EBANDS =       -92.58770153
  atomic energy  EATOM  =       197.04175453
  Solvation  Ediel_sol  =         0.00000000
  ---------------------------------------------------
  free energy    TOTEN  =       -23.82665141 eV

  energy without entropy =      -23.82665141  energy(sigma->0) =      -23.82665141


--------------------------------------------------------------------------------------------------------




--------------------------------------- Iteration      1(   9)  ---------------------------------------


    POTLOK:  cpu time    1.6577: real time    1.6616
    SETDIJ:  cpu time    0.0064: real time    0.0064
     EDDAV:  cpu time    0.4783: real time    0.4795
       DOS:  cpu time    0.0001: real time    0.0001
    CHARGE:  cpu time    0.0865: real time    0.0867
    MIXING:  cpu time    0.0387: real time    0.0388
    --------------------------------------------
      LOOP:  cpu time    2.2677: real time    2.2730

 eigenvalue-minimisations  :    16
 total energy-change (2. order) : 0.6756731E-02  (-0.4248069E-03)
 number of electron       8.0000000 magnetization 
 augmentation part        0.1830892 magnetization 

 Broyden mixing:
  rms(total) = 0.15339E-01    rms(broyden)= 0.15335E-01
  rms(prec ) = 0.35290E-01
  weight for this iteration     100.00

 eigenvalues of (default mixing * dielectric matrix)
  average eigenvalue GAMMA=   1.8631
  2.7607  2.5187  0.9839  1.1890

 Free energy of the ion-electron system (eV)
  ---------------------------------------------------
  alpha Z        PSCENC =         0.24311671
  Ewald energy   TEWEN  =       126.75630350
  -Hartree energ DENC   =      -280.30893222
  -exchange      EXHF   =         0.00000000
  -V(xc)+E(xc)   XCENC  =        24.55547778
  PAW double counting   =       463.18604378     -463.96968813
  entropy T*S    EENTRO =        -0.00000000
  eigenvalues    EBANDS =       -91.32397063
  atomic energy  EATOM  =       197.04175453
  Solvation  Ediel_sol  =         0.00000000
  ---------------------------------------------------
  free energy    TOTEN  =       -23.81989468 eV

  energy without entropy =      -23.81989468  energy(sigma->0) =      -23.81989468


--------------------------------------------------------------------------------------------------------




--------------------------------------- Iteration      1(  10)  ---------------------------------------


    POTLOK:  cpu time    1.5656: real time    1.5693
    SETDIJ:  cpu time    0.0065: real time    0.0065
     EDDAV:  cpu time    0.4858: real time    0.4870
       DOS:  cpu time    0.0001: real time    0.0001
    CHARGE:  cpu time    0.0896: real time    0.0898
    MIXING:  cpu time    0.0372: real time    0.0372
    --------------------------------------------
      LOOP:  cpu time    2.1847: real time    2.1899

 eigenvalue-minimisations  :    16
 total energy-change (2. order) : 0.7649132E-02  (-0.4819279E-03)
 number of electron       8.0000000 magnetization 
 augmentation part        0.1828663 magnetization 

 Broyden mixing:
  rms(total) = 0.68166E-02    rms(broyden)= 0.68154E-02
  rms(prec ) = 0.16740E-01
  weight for this iteration     100.00

 eigenvalues of (default mixing * dielectric matrix)
  average eigenvalue GAMMA=   1.8488
  3.0479  1.0091  1.2088  2.2708  1.7075

 Free energy of the ion-electron system (eV)
  ---------------------------------------------------
  alpha Z        PSCENC =         0.24311671
  Ewald energy   TEWEN  =       126.75630350
  -Hartree energ DENC   =      -281.81207904
  -exchange      EXHF   =         0.00000000
  -V(xc)+E(xc)   XCENC  =        24.62360354
  PAW double counting   =       455.01112048     -455.79100773
  entropy T*S    EENTRO =        -0.00000000
  eigenvalues    EBANDS =       -89.88505753
  atomic energy  EATOM  =       197.04175453
  Solvation  Ediel_sol  =         0.00000000
  ---------------------------------------------------
  free energy    TOTEN  =       -23.81224555 eV

  energy without entropy =      -23.81224555  energy(sigma->0) =      -23.81224555


--------------------------------------------------------------------------------------------------------




--------------------------------------- Iteration      1(  11)  ---------------------------------------


    POTLOK:  cpu time    1.4767: real time    1.4802
    SETDIJ:  cpu time    0.0065: real time    0.0065
     EDDAV:  cpu time    0.8735: real time    0.8756
       DOS:  cpu time    0.0001: real time    0.0001
    CHARGE:  cpu time    0.0929: real time    0.0931
    MIXING:  cpu time    0.0369: real time    0.0370
    --------------------------------------------
      LOOP:  cpu time    2.4866: real time    2.4925

 eigenvalue-minimisations  :    32
 total energy-change (2. order) :-0.4991339E-02  (-0.1662720E-03)
 number of electron       8.0000000 magnetization 
 augmentation part        0.1826495 magnetization 

 Broyden mixing:
  rms(total) = 0.47104E-02    rms(broyden)= 0.47098E-02
  rms(prec ) = 0.98153E-02
  weight for this iteration     100.00

 eigenvalues of (default mixing * dielectric matrix)
  average eigenvalue GAMMA=   2.0603
  4.1441  2.7580  2.1505  1.2118  1.0249  1.0728

 Free energy of the ion-electron system (eV)
  ---------------------------------------------------
  alpha Z        PSCENC =         0.24311671
  Ewald energy   TEWEN  =       126.75630350
  -Hartree energ DENC   =      -282.51145764
  -exchange      EXHF   =         0.00000000
  -V(xc)+E(xc)   XCENC  =        24.65186061
  PAW double counting   =       456.61893114     -457.39903038
  entropy T*S    EENTRO =        -0.00000000
  eigenvalues    EBANDS =       -89.21871536
  atomic energy  EATOM  =       197.04175453
  Solvation  Ediel_sol  =         0.00000000
  ---------------------------------------------------
  free energy    TOTEN  =       -23.81723689 eV

  energy without entropy =      -23.81723689  energy(sigma->0) =      -23.81723689


--------------------------------------------------------------------------------------------------------




--------------------------------------- Iteration      1(  12)  ---------------------------------------


    POTLOK:  cpu time    1.4222: real time    1.4256
    SETDIJ:  cpu time    0.0064: real time    0.0064
     EDDAV:  cpu time    0.8753: real time    0.8774
       DOS:  cpu time    0.0001: real time    0.0001
    CHARGE:  cpu time    0.0888: real time    0.0890
    MIXING:  cpu time    0.0376: real time    0.0377
    --------------------------------------------
      LOOP:  cpu time    2.4304: real time    2.4361

 eigenvalue-minimisations  :    32
 total energy-change (2. order) :-0.4772287E-02  (-0.5480671E-04)
 number of electron       8.0000000 magnetization 
 augmentation part        0.1826526 magnetization 

 Broyden mixing:
  rms(total) = 0.24202E-02    rms(broyden)= 0.24201E-02
  rms(prec ) = 0.53613E-02
  weight for this iteration     100.00

 eigenvalues of (default mixing * dielectric matrix)
  average eigenvalue GAMMA=   2.3489
  5.2855  3.2078  2.6015  2.0689  1.2006  1.0230  1.0553

 Free energy of the ion-electron system (eV)
  ---------------------------------------------------
  alpha Z        PSCENC =         0.24311671
  Ewald energy   TEWEN  =       126.75630350
  -Hartree energ DENC   =      -282.50588837
  -exchange      EXHF   =         0.00000000
  -V(xc)+E(xc)   XCENC  =        24.63538012
  PAW double counting   =       453.53965093     -454.31997448
  entropy T*S    EENTRO =        -0.00000000
  eigenvalues    EBANDS =       -89.21235211
  atomic energy  EATOM  =       197.04175453
  Solvation  Ediel_sol  =         0.00000000
  ---------------------------------------------------
  free energy    TOTEN  =       -23.82200918 eV

  energy without entropy =      -23.82200918  energy(sigma->0) =      -23.82200918


--------------------------------------------------------------------------------------------------------




--------------------------------------- Iteration      1(  13)  ---------------------------------------


    POTLOK:  cpu time    1.3719: real time    1.3751
    SETDIJ:  cpu time    0.0064: real time    0.0065
     EDDAV:  cpu time    0.8656: real time    0.8676
       DOS:  cpu time    0.0001: real time    0.0001
    CHARGE:  cpu time    0.0870: real time    0.0872
    MIXING:  cpu time    0.0384: real time    0.0385
    --------------------------------------------
      LOOP:  cpu time    2.3694: real time    2.3750

 eigenvalue-minimisations  :    32
 total energy-change (2. order) :-0.4167400E-02  (-0.9612986E-04)
 number of electron       8.0000000 magnetization 
 augmentation part        0.1826001 magnetization 

 Broyden mixing:
  rms(total) = 0.15380E-02    rms(broyden)= 0.15378E-02
  rms(prec ) = 0.26091E-02
  weight for this iteration     100.00

 eigenvalues of (default mixing * dielectric matrix)
  average eigenvalue GAMMA=   2.2379
  5.7601  3.4015  2.3977  2.0792  1.2014  1.1774  0.9812  0.9044

 Free energy of the ion-electron system (eV)
  ---------------------------------------------------
  alpha Z        PSCENC =         0.24311671
  Ewald energy   TEWEN  =       126.75630350
  -Hartree energ DENC   =      -282.62061263
  -exchange      EXHF   =         0.00000000
  -V(xc)+E(xc)   XCENC  =        24.63648046
  PAW double counting   =       455.37475585     -456.15472844
  entropy T*S    EENTRO =        -0.00000000
  eigenvalues    EBANDS =       -89.10324655
  atomic energy  EATOM  =       197.04175453
  Solvation  Ediel_sol  =         0.00000000
  ---------------------------------------------------
  free energy    TOTEN  =       -23.82617658 eV

  energy without entropy =      -23.82617658  energy(sigma->0) =      -23.82617658


--------------------------------------------------------------------------------------------------------




--------------------------------------- Iteration      1(  14)  ---------------------------------------


    POTLOK:  cpu time    1.3764: real time    1.3796
    SETDIJ:  cpu time    0.0064: real time    0.0064
     EDDAV:  cpu time    0.4819: real time    0.4831
       DOS:  cpu time    0.0001: real time    0.0001
    CHARGE:  cpu time    0.0892: real time    0.0894
    MIXING:  cpu time    0.0420: real time    0.0421
    --------------------------------------------
      LOOP:  cpu time    1.9960: real time    2.0007

 eigenvalue-minimisations  :    16
 total energy-change (2. order) :-0.5902771E-03  (-0.3696192E-05)
 number of electron       8.0000000 magnetization 
 augmentation part        0.1826076 magnetization 

 Broyden mixing:
  rms(total) = 0.61605E-03    rms(broyden)= 0.61603E-03
  rms(prec ) = 0.14732E-02
  weight for this iteration     100.00

 eigenvalues of (default mixing * dielectric matrix)
  average eigenvalue GAMMA=   2.5709
  7.0830  4.4416  2.9573  2.3982  1.9501  0.9856  0.9856  1.2011  1.1359

 Free energy of the ion-electron system (eV)
  ---------------------------------------------------
  alpha Z        PSCENC =         0.24311671
  Ewald energy   TEWEN  =       126.75630350
  -Hartree energ DENC   =      -282.57396175
  -exchange      EXHF   =         0.00000000
  -V(xc)+E(xc)   XCENC  =        24.63167898
  PAW double counting   =       454.73062791     -455.51071030
  entropy T*S    EENTRO =        -0.00000000
  eigenvalues    EBANDS =       -89.14557644
  atomic energy  EATOM  =       197.04175453
  Solvation  Ediel_sol  =         0.00000000
  ---------------------------------------------------
  free energy    TOTEN  =       -23.82676685 eV

  energy without entropy =      -23.82676685  energy(sigma->0) =      -23.82676685


--------------------------------------------------------------------------------------------------------




--------------------------------------- Iteration      1(  15)  ---------------------------------------


    POTLOK:  cpu time    1.3814: real time    1.3847
    SETDIJ:  cpu time    0.0065: real time    0.0065
     EDDAV:  cpu time    0.4779: real time    0.4790
       DOS:  cpu time    0.0001: real time    0.0001
    CHARGE:  cpu time    0.0889: real time    0.0891
    MIXING:  cpu time    0.0406: real time    0.0407
    --------------------------------------------
      LOOP:  cpu time    1.9954: real time    2.0001

 eigenvalue-minimisations  :    16
 total energy-change (2. order) :-0.7013733E-03  (-0.9734925E-05)
 number of electron       8.0000000 magnetization 
 augmentation part        0.1826046 magnetization 

 Broyden mixing:
  rms(total) = 0.49446E-03    rms(broyden)= 0.49444E-03
  rms(prec ) = 0.68205E-03
  weight for this iteration     100.00

 eigenvalues of (default mixing * dielectric matrix)
  average eigenvalue GAMMA=   2.4119
  7.1088  4.4672  2.8209  2.3455  1.9236  1.2763  1.1997  0.9609  1.0079  1.0079

 Free energy of the ion-electron system (eV)
  ---------------------------------------------------
  alpha Z        PSCENC =         0.24311671
  Ewald energy   TEWEN  =       126.75630350
  -Hartree energ DENC   =      -282.56827418
  -exchange      EXHF   =         0.00000000
  -V(xc)+E(xc)   XCENC  =        24.63028426
  PAW double counting   =       454.45627817     -455.23630103
  entropy T*S    EENTRO =        -0.00000000
  eigenvalues    EBANDS =       -89.15063018
  atomic energy  EATOM  =       197.04175453
  Solvation  Ediel_sol  =         0.00000000
  ---------------------------------------------------
  free energy    TOTEN  =       -23.82746823 eV

  energy without entropy =      -23.82746823  energy(sigma->0) =      -23.82746823


--------------------------------------------------------------------------------------------------------




--------------------------------------- Iteration      1(  16)  ---------------------------------------


    POTLOK:  cpu time    1.3850: real time    1.3883
    SETDIJ:  cpu time    0.0064: real time    0.0064
     EDDAV:  cpu time    0.6678: real time    0.6694
       DOS:  cpu time    0.0001: real time    0.0001
    CHARGE:  cpu time    0.0809: real time    0.0811
    MIXING:  cpu time    0.0410: real time    0.0411
    --------------------------------------------
      LOOP:  cpu time    2.1811: real time    2.1862

 eigenvalue-minimisations  :    24
 total energy-change (2. order) :-0.4253314E-04  (-0.2003933E-06)
 number of electron       8.0000000 magnetization 
 augmentation part        0.1825985 magnetization 

 Broyden mixing:
  rms(total) = 0.15266E-03    rms(broyden)= 0.15265E-03
  rms(prec ) = 0.32025E-03
  weight for this iteration     100.00

 eigenvalues of (default mixing * dielectric matrix)
  average eigenvalue GAMMA=   2.6299
  8.1704  4.9678  3.5884  2.6743  2.2960  1.9105  1.2029  1.1783  0.9978  0.9978
  0.9444

 Free energy of the ion-electron system (eV)
  ---------------------------------------------------
  alpha Z        PSCENC =         0.24311671
  Ewald energy   TEWEN  =       126.75630350
  -Hartree energ DENC   =      -282.57868912
  -exchange      EXHF   =         0.00000000
  -V(xc)+E(xc)   XCENC  =        24.63103900
  PAW double counting   =       454.60662659     -455.38666558
  entropy T*S    EENTRO =        -0.00000000
  eigenvalues    EBANDS =       -89.14099639
  atomic energy  EATOM  =       197.04175453
  Solvation  Ediel_sol  =         0.00000000
  ---------------------------------------------------
  free energy    TOTEN  =       -23.82751076 eV

  energy without entropy =      -23.82751076  energy(sigma->0) =      -23.82751076


--------------------------------------------------------------------------------------------------------




--------------------------------------- Iteration      1(  17)  ---------------------------------------


    POTLOK:  cpu time    1.4823: real time    1.4860
    SETDIJ:  cpu time    0.0065: real time    0.0065
     EDDAV:  cpu time    0.6605: real time    0.6620
       DOS:  cpu time    0.0001: real time    0.0001
    CHARGE:  cpu time    0.0875: real time    0.0877
    MIXING:  cpu time    0.0424: real time    0.0425
    --------------------------------------------
      LOOP:  cpu time    2.2793: real time    2.2849

 eigenvalue-minimisations  :    24
 total energy-change (2. order) :-0.6766810E-04  (-0.3057232E-06)
 number of electron       8.0000000 magnetization 
 augmentation part        0.1825982 magnetization 

 Broyden mixing:
  rms(total) = 0.78548E-04    rms(broyden)= 0.78538E-04
  rms(prec ) = 0.11916E-03
  weight for this iteration     100.00

 eigenvalues of (default mixing * dielectric matrix)
  average eigenvalue GAMMA=   2.5329
  8.2981  5.1271  3.5776  2.6982  2.2708  1.7873  1.4259  1.1982  1.0253  1.0253
  0.9804  0.9804

 Free energy of the ion-electron system (eV)
  ---------------------------------------------------
  alpha Z        PSCENC =         0.24311671
  Ewald energy   TEWEN  =       126.75630350
  -Hartree energ DENC   =      -282.58576504
  -exchange      EXHF   =         0.00000000
  -V(xc)+E(xc)   XCENC  =        24.63136575
  PAW double counting   =       454.54219396     -455.32223950
  entropy T*S    EENTRO =        -0.00000000
  eigenvalues    EBANDS =       -89.13430833
  atomic energy  EATOM  =       197.04175453
  Solvation  Ediel_sol  =         0.00000000
  ---------------------------------------------------
  free energy    TOTEN  =       -23.82757843 eV

  energy without entropy =      -23.82757843  energy(sigma->0) =      -23.82757843


--------------------------------------------------------------------------------------------------------




--------------------------------------- Iteration      1(  18)  ---------------------------------------


    POTLOK:  cpu time    1.5012: real time    1.5048
    SETDIJ:  cpu time    0.0064: real time    0.0064
     EDDAV:  cpu time    0.8854: real time    0.8875
       DOS:  cpu time    0.0001: real time    0.0001
    CHARGE:  cpu time    0.0940: real time    0.0942
    MIXING:  cpu time    0.0434: real time    0.0435
    --------------------------------------------
      LOOP:  cpu time    2.5305: real time    2.5365

 eigenvalue-minimisations  :    32
 total energy-change (2. order) :-0.4414206E-05  (-0.6161944E-08)
 number of electron       8.0000000 magnetization 
 augmentation part        0.1825985 magnetization 

 Broyden mixing:
  rms(total) = 0.32487E-04    rms(broyden)= 0.32485E-04
  rms(prec ) = 0.65594E-04
  weight for this iteration     100.00

 eigenvalues of (default mixing * dielectric matrix)
  average eigenvalue GAMMA=   2.5864
  8.5014  5.3510  3.9670  2.8718  2.5594  2.2071  1.8452  1.1939  1.2269  1.0139
  1.0139  0.9362  0.9362

 Free energy of the ion-electron system (eV)
  ---------------------------------------------------
  alpha Z        PSCENC =         0.24311671
  Ewald energy   TEWEN  =       126.75630350
  -Hartree energ DENC   =      -282.58455594
  -exchange      EXHF   =         0.00000000
  -V(xc)+E(xc)   XCENC  =        24.63124868
  PAW double counting   =       454.55132330     -455.33136883
  entropy T*S    EENTRO =        -0.00000000
  eigenvalues    EBANDS =       -89.13540480
  atomic energy  EATOM  =       197.04175453
  Solvation  Ediel_sol  =         0.00000000
  ---------------------------------------------------
  free energy    TOTEN  =       -23.82758284 eV

  energy without entropy =      -23.82758284  energy(sigma->0) =      -23.82758284


--------------------------------------------------------------------------------------------------------




--------------------------------------- Iteration      1(  19)  ---------------------------------------


    POTLOK:  cpu time    1.5266: real time    1.5302
    SETDIJ:  cpu time    0.0064: real time    0.0064
     EDDAV:  cpu time    0.4743: real time    0.4755
       DOS:  cpu time    0.0001: real time    0.0001
    CHARGE:  cpu time    0.0888: real time    0.0890
    MIXING:  cpu time    0.0443: real time    0.0444
    --------------------------------------------
      LOOP:  cpu time    2.1405: real time    2.1456

 eigenvalue-minimisations  :    16
 total energy-change (2. order) :-0.3732765E-05  (-0.1459426E-07)
 number of electron       8.0000000 magnetization 
 augmentation part        0.1825986 magnetization 

 Broyden mixing:
  rms(total) = 0.17447E-04    rms(broyden)= 0.17446E-04
  rms(prec ) = 0.34457E-04
  weight for this iteration     100.00

 eigenvalues of (default mixing * dielectric matrix)
  average eigenvalue GAMMA=   2.5673
  8.5207  5.4494  4.1057  3.0158  2.6482  2.1936  1.8449  1.8449  1.2008  1.1466
  0.9906  0.9906  0.9664  1.0237

 Free energy of the ion-electron system (eV)
  ---------------------------------------------------
  alpha Z        PSCENC =         0.24311671
  Ewald energy   TEWEN  =       126.75630350
  -Hartree energ DENC   =      -282.58501038
  -exchange      EXHF   =         0.00000000
  -V(xc)+E(xc)   XCENC  =        24.63123991
  PAW double counting   =       454.56651978     -455.34655706
  entropy T*S    EENTRO =        -0.00000000
  eigenvalues    EBANDS =       -89.13495357
  atomic energy  EATOM  =       197.04175453
  Solvation  Ediel_sol  =         0.00000000
  ---------------------------------------------------
  free energy    TOTEN  =       -23.82758657 eV

  energy without entropy =      -23.82758657  energy(sigma->0) =      -23.82758657


--------------------------------------------------------------------------------------------------------




--------------------------------------- Iteration      1(  20)  ---------------------------------------


    POTLOK:  cpu time    1.5319: real time    1.5356
    SETDIJ:  cpu time    0.0065: real time    0.0066
     EDDAV:  cpu time    0.4738: real time    0.4749
       DOS:  cpu time    0.0001: real time    0.0001
    CHARGE:  cpu time    0.0864: real time    0.0866
    MIXING:  cpu time    0.0461: real time    0.0462
    --------------------------------------------
      LOOP:  cpu time    2.1448: real time    2.1499

 eigenvalue-minimisations  :    16
 total energy-change (2. order) :-0.1170201E-05  (-0.3206324E-08)
 number of electron       8.0000000 magnetization 
 augmentation part        0.1825989 magnetization 

 Broyden mixing:
  rms(total) = 0.78061E-05    rms(broyden)= 0.78056E-05
  rms(prec ) = 0.18035E-04
  weight for this iteration     100.00

 eigenvalues of (default mixing * dielectric matrix)
  average eigenvalue GAMMA=   2.5909
  8.5761  5.5523  4.4977  3.6107  2.7255  2.4614  2.1508  1.8729  1.2438  1.1800
  1.0742  0.9810  0.9810  0.9783  0.9783

 Free energy of the ion-electron system (eV)
  ---------------------------------------------------
  alpha Z        PSCENC =         0.24311671
  Ewald energy   TEWEN  =       126.75630350
  -Hartree energ DENC   =      -282.58489984
  -exchange      EXHF   =         0.00000000
  -V(xc)+E(xc)   XCENC  =        24.63123557
  PAW double counting   =       454.55872733     -455.33876341
  entropy T*S    EENTRO =        -0.00000000
  eigenvalues    EBANDS =       -89.13506214
  atomic energy  EATOM  =       197.04175453
  Solvation  Ediel_sol  =         0.00000000
  ---------------------------------------------------
  free energy    TOTEN  =       -23.82758774 eV

  energy without entropy =      -23.82758774  energy(sigma->0) =      -23.82758774


--------------------------------------------------------------------------------------------------------




--------------------------------------- Iteration      1(  21)  ---------------------------------------


    POTLOK:  cpu time    1.5415: real time    1.5452
    SETDIJ:  cpu time    0.0064: real time    0.0065
     EDDAV:  cpu time    0.4687: real time    0.4698
       DOS:  cpu time    0.0001: real time    0.0001
    --------------------------------------------
      LOOP:  cpu time    2.0167: real time    2.0215

 eigenvalue-minimisations  :    16
 total energy-change (2. order) :-0.4948461E-06  (-0.1473278E-08)
 number of electron       8.0000000 magnetization 
 augmentation part        0.1825989 magnetization 

 Free energy of the ion-electron system (eV)
  ---------------------------------------------------
  alpha Z        PSCENC =         0.24311671
  Ewald energy   TEWEN  =       126.75630350
  -Hartree energ DENC   =      -282.58458819
  -exchange      EXHF   =         0.00000000
  -V(xc)+E(xc)   XCENC  =        24.63121381
  PAW double counting   =       454.55313930     -455.33317782
  entropy T*S    EENTRO =        -0.00000000
  eigenvalues    EBANDS =       -89.13535008
  atomic energy  EATOM  =       197.04175453
  Solvation  Ediel_sol  =         0.00000000
  ---------------------------------------------------
  free energy    TOTEN  =       -23.82758824 eV

  energy without entropy =      -23.82758824  energy(sigma->0) =      -23.82758824


--------------------------------------------------------------------------------------------------------




 average (electrostatic) potential at core
  the test charge radii are     0.5201  0.6991
  (the norm of the test charge is              1.0000)
       1 -41.3020       2 -41.8232       3 -41.2304       4 -41.5797       5 -58.0356



 E-fermi :  -8.3546     XC(G=0):  -0.7044     alpha+bet : -0.2114


 k-point     1 :       0.0000    0.0000    0.0000
  band No.  band energies     occupation 
      1     -16.8721      2.00000
      2      -9.8276      2.00000
      3      -9.2308      2.00000
      4      -8.6372      2.00000
      5      -0.5489      0.00000
      6       0.9602      0.00000
      7       0.9825      0.00000
      8       1.0760      0.00000


--------------------------------------------------------------------------------------------------------


 soft charge-density along one line, spin component           1
         0         1         2         3         4         5         6         7         8         9
 total charge-density along one line

 pseudopotential strength for first ion, spin component:           1
 -2.339  -4.029  -0.001  -0.001  -0.001
 -4.029  -6.856  -0.002  -0.002  -0.004
 -0.001  -0.002  -0.339   0.001   0.002
 -0.001  -0.002   0.001  -0.339   0.002
 -0.001  -0.004   0.002   0.002  -0.337
 total augmentation occupancy for first ion, spin component:           1
  3.500  -0.632   0.171   0.186   0.324
 -0.632   0.131  -0.032  -0.036  -0.061
  0.171  -0.032   0.016   0.007   0.013
  0.186  -0.036   0.007   0.017   0.014
  0.324  -0.061   0.013   0.014   0.034


------------------------ aborting loop because EDIFF is reached ----------------------------------------


    CHARGE:  cpu time    0.0878: real time    0.0880
    FORLOC:  cpu time    0.1053: real time    0.1056
    FORNL :  cpu time    0.1477: real time    0.1481
    STRESS:  cpu time    0.5586: real time    0.5599
    FORCOR:  cpu time    1.5609: real time    1.5646
    FORHAR:  cpu time    0.5083: real time    0.5095
    MIXING:  cpu time    0.0486: real time    0.0487
    OFIELD:  cpu time    0.0000: real time    0.0000

  FORCE on cell =-STRESS in cart. coord.  units (eV):
  Direction    XX          YY          ZZ          XY          YZ          ZX
  --------------------------------------------------------------------------------------
  Alpha Z     0.24312     0.24312     0.24312
  Ewald      36.57401    52.28437    37.89790    -0.90773    -7.79150    -6.91053
  Hartree    92.57698    99.58210    90.42589    -0.57183    -1.16994    -1.94237
  E(xc)     -27.11327   -27.04633   -27.10132    -0.00322    -0.02962    -0.03431
  Local    -189.04916  -209.74924  -187.12727     1.47916     7.01335     7.63877
  n-local   -15.72710   -15.54425   -15.67682    -0.08841     0.02735    -0.12614
  augment     0.12617     0.11251     0.11730    -0.00070     0.01548     0.00774
  Kinetic   101.94283    98.38233   101.17618     0.31140     1.48877     2.06389
  Fock        0.00000     0.00000     0.00000     0.00000     0.00000     0.00000
  -------------------------------------------------------------------------------------
  Total      -0.42643    -1.73540    -0.04501     0.21866    -0.44611     0.69705
  in kB      -0.68566    -2.79036    -0.07237     0.35158    -0.71730     1.12079
  external pressure =       -1.18 kB  Pullay stress =        0.00 kB


 VOLUME and BASIS-vectors are now :
 -----------------------------------------------------------------------------
  energy-cutoff  :      400.00
  volume of cell :      996.44
      direct lattice vectors                 reciprocal lattice vectors
    10.006619500  0.000000000  0.000000000     0.099933849  0.002269562  0.000748798
    -0.221244500  9.741885200  0.000000000     0.000000000  0.102649536 -0.002424515
    -0.082073000  0.241428100 10.221626300     0.000000000 -0.000000000  0.097831790

  length of vectors
    10.006619500  9.744397179 10.224806488     0.099962422  0.102678165  0.097831790


 FORCES acting on ions
    electron-ion (+dipol)            ewald-force                    non-local-force                 convergence-correction
 -----------------------------------------------------------------------------------------------
   0.412E+02 0.217E+02 0.239E+02   -.453E+02 -.237E+02 -.265E+02   0.413E+01 0.220E+01 0.232E+01   -.433E-05 0.283E-05 -.925E-05
   -.108E+02 0.376E+02 -.367E+02   0.126E+02 -.418E+02 0.414E+02   -.912E+00 0.428E+01 -.389E+01   -.695E-05 -.184E-04 0.169E-04
   0.179E+02 -.440E+02 -.173E+02   -.189E+02 0.470E+02 0.188E+02   0.187E+01 -.421E+01 -.152E+01   -.184E-04 0.109E-04 0.233E-05
   -.359E+02 -.869E+01 0.375E+02   0.397E+02 0.947E+01 -.412E+02   -.359E+01 -.915E+00 0.407E+01   0.437E-05 0.672E-06 -.332E-04
   -.113E+02 -.785E+01 -.704E+01   0.118E+02 0.909E+01 0.737E+01   -.261E+01 -.142E+00 -.128E+01   -.824E-04 -.246E-04 -.618E-04
 -----------------------------------------------------------------------------------------------
   0.111E+01 -.121E+01 0.306E+00   0.000E+00 -.178E-14 0.000E+00   -.111E+01 0.121E+01 -.306E+00   -.108E-03 -.287E-04 -.850E-04


 POSITION                                       TOTAL-FORCE (eV/Angst)
 -----------------------------------------------------------------------------------
      4.03690      4.21410      4.04793         0.065878      0.232118     -0.240946
      5.11060      3.90941      5.28102         0.863830      0.030606      0.796072
      4.48822      5.66641      4.93502         0.868765     -1.221436     -0.033023
      5.64728      4.85052      3.75640         0.279076     -0.137079      0.438822
      4.91223      4.67426      4.55290        -2.077548      1.095790     -0.960925
 -----------------------------------------------------------------------------------
    total drift:                               -0.000355     -0.000268     -0.000128


--------------------------------------------------------------------------------------------------------



  FREE ENERGIE OF THE ION-ELECTRON SYSTEM (eV)
  ---------------------------------------------------
  free  energy   TOTEN  =       -23.82758824 eV

  energy  without entropy=      -23.82758824  energy(sigma->0) =      -23.82758824



--------------------------------------------------------------------------------------------------------


    POTLOK:  cpu time    1.5604: real time    1.5641


--------------------------------------------------------------------------------------------------------


     LOOP+:  cpu time   45.9533: real time   46.1127
    4ORBIT:  cpu time    0.0000: real time    0.0000

 total amount of memory used by VASP MPI-rank0   274698. kBytes
=======================================================================

   base      :      30000. kBytes
   nonlr-proj:       1238. kBytes
   fftplans  :      86584. kBytes
   grid      :     154542. kBytes
   one-center:         15. kBytes
   wavefun   :       2319. kBytes

  
  
 General timing and accounting informations for this job:
 ========================================================
  
                  Total CPU time used (sec):       47.583
                            User time (sec):       46.178
                          System time (sec):        1.405
                         Elapsed time (sec):       47.765
  
                   Maximum memory used (kb):      391812.
                   Average memory used (kb):           0.
  
                          Minor page faults:       215714
                          Major page faults:            0
                 Voluntary context switches:          146
