 vasp.5.4.4.18Apr17-6-g9f103f2a35 (build Jul 12 2018 13:43:46) complex           
 executed on             LinuxGNU date 2019.06.25  21:09:22
 running on    1 total cores
 distrk:  each k-point on    1 cores,    1 groups
 distr:  one band on NCORES_PER_BAND=   1 cores,    1 groups


--------------------------------------------------------------------------------------------------------


 INCAR:
 POTCAR:    PAW_PBE H 15Jun2001                   
 POTCAR:    PAW_PBE C 08Apr2002                   
 POTCAR:    PAW_PBE H 15Jun2001                   
   VRHFIN =H: ultrasoft test                                                    
   LEXCH  = PE                                                                  
   EATOM  =    12.4884 eV,    0.9179 Ry                                         
                                                                                
   TITEL  = PAW_PBE H 15Jun2001                                                 
   LULTRA =        F    use ultrasoft PP ?                                      
   IUNSCR =        0    unscreen: 0-lin 1-nonlin 2-no                           
   RPACOR =    0.000    partial core radius                                     
   POMASS =    1.000; ZVAL   =    1.000    mass and valenz                      
   RCORE  =    1.100    outmost cutoff radius                                   
   RWIGS  =    0.700; RWIGS  =    0.370    wigner-seitz radius (au A)           
   ENMAX  =  250.000; ENMIN  =  200.000 eV                                      
   RCLOC  =    0.701    cutoff for local pot                                    
   LCOR   =        T    correct aug charges                                     
   LPAW   =        T    paw PP                                                  
   EAUG   =  400.000                                                            
   RMAX   =    1.123    core radius for proj-oper                               
   RAUG   =    1.200    factor for augmentation sphere                          
   RDEP   =    1.112    radius for radial grids                                 
   RDEPT  =    0.926    core radius for aug-charge                              
                                                                                
   Atomic configuration                                                         
    2 entries                                                                   
     n  l   j            E        occ.                                          
     1  0  0.50        -6.4927   1.0000                                         
     2  1  0.50        -3.4015   0.0000                                         
   Description                                                                  
     l       E           TYP  RCUT    TYP  RCUT                                 
     0     -6.4927494     23  1.100                                             
     0      6.8029130     23  1.100                                             
     1     -4.0817478     23  1.100                                             
  local pseudopotential read in
  atomic valenz-charges read in
  non local Contribution for L=           0  read in
    real space projection operators read in
  non local Contribution for L=           0  read in
    real space projection operators read in
  non local Contribution for L=           1  read in
    real space projection operators read in
    PAW grid and wavefunctions read in

   number of l-projection  operators is LMAX  =           3
   number of lm-projection operators is LMMAX =           5

 POTCAR:    PAW_PBE C 08Apr2002                   
   VRHFIN =C: s2p2                                                              
   LEXCH  = PE                                                                  
   EATOM  =   147.1560 eV,   10.8157 Ry                                         
                                                                                
   TITEL  = PAW_PBE C 08Apr2002                                                 
   LULTRA =        F    use ultrasoft PP ?                                      
   IUNSCR =        1    unscreen: 0-lin 1-nonlin 2-no                           
   RPACOR =    1.200    partial core radius                                     
   POMASS =   12.011; ZVAL   =    4.000    mass and valenz                      
   RCORE  =    1.500    outmost cutoff radius                                   
   RWIGS  =    1.630; RWIGS  =    0.863    wigner-seitz radius (au A)           
   ENMAX  =  400.000; ENMIN  =  300.000 eV                                      
   ICORE  =        2    local potential                                         
   LCOR   =        T    correct aug charges                                     
   LPAW   =        T    paw PP                                                  
   EAUG   =  644.873                                                            
   DEXC   =    0.000                                                            
   RMAX   =    1.529    core radius for proj-oper                               
   RAUG   =    1.300    factor for augmentation sphere                          
   RDEP   =    1.501    radius for radial grids                                 
   RDEPT  =    1.300    core radius for aug-charge                              
                                                                                
   Atomic configuration                                                         
    4 entries                                                                   
     n  l   j            E        occ.                                          
     1  0  0.50      -273.3789   2.0000                                         
     2  0  0.50       -13.7508   2.0000                                         
     2  1  0.50        -5.2854   2.0000                                         
     3  2  1.50        -5.4423   0.0000                                         
   Description                                                                  
     l       E           TYP  RCUT    TYP  RCUT                                 
     0    -13.7508458     23  1.200                                             
     0     -8.2022199     23  1.200                                             
     1     -5.2854383     23  1.500                                             
     1     34.0145650     23  1.500                                             
     2     -5.4423304      7  1.500                                             
  local pseudopotential read in
  partial core-charges read in
  partial kinetic energy density read in
  atomic valenz-charges read in
  non local Contribution for L=           0  read in
    real space projection operators read in
  non local Contribution for L=           0  read in
    real space projection operators read in
  non local Contribution for L=           1  read in
    real space projection operators read in
  non local Contribution for L=           1  read in
    real space projection operators read in
    PAW grid and wavefunctions read in

   number of l-projection  operators is LMAX  =           4
   number of lm-projection operators is LMMAX =           8


 ----------------------------------------------------------------------------- 
|                                                                             |
|  ADVICE TO THIS USER RUNNING 'VASP/VAMP'   (HEAR YOUR MASTER'S VOICE ...):  |
|                                                                             |
|      You have a (more or less) 'small supercell' and for smaller cells      |
|      it is recommended  to use the reciprocal-space projection scheme!      |
|      The real space optimization is not  efficient for small cells and it   |
|      is also less accurate ...                                              |
|      Therefore set LREAL=.FALSE. in the  INCAR file                         |
|                                                                             |
 ----------------------------------------------------------------------------- 

 Optimization of the real space projectors (new method)

 maximal supplied QI-value         = 34.20
 optimisation between [QCUT,QGAM] = [  9.92, 20.18] = [ 27.55,114.04] Ry 
 Optimized for a Real-space Cutoff    1.34 Angstroem

   l    n(q)    QCUT    max X(q) W(low)/X(q) W(high)/X(q)  e(spline) 
   0      8     9.919    19.460    0.16E-03    0.20E-03    0.36E-06
   0      8     9.919    12.209    0.16E-03    0.20E-03    0.35E-06
   1      8     9.919     4.655    0.19E-03    0.46E-03    0.40E-06
 Optimization of the real space projectors (new method)

 maximal supplied QI-value         = 25.13
 optimisation between [QCUT,QGAM] = [ 10.05, 20.36] = [ 28.30,116.06] Ry 
 Optimized for a Real-space Cutoff    1.51 Angstroem

   l    n(q)    QCUT    max X(q) W(low)/X(q) W(high)/X(q)  e(spline) 
   0      9    10.053   115.676    0.19E-03    0.21E-03    0.38E-06
   0      9    10.053    87.132    0.19E-03    0.21E-03    0.38E-06
   1      9    10.053     4.429    0.87E-04    0.11E-03    0.39E-06
   1      9    10.053     2.733    0.59E-04    0.62E-04    0.43E-06
  PAW_PBE H 15Jun2001                   :
 energy of atom  1       EATOM=  -12.4884
 kinetic energy error for atom=    0.0098 (will be added to EATOM!!)
  PAW_PBE C 08Apr2002                   :
 energy of atom  2       EATOM= -147.1560
 kinetic energy error for atom=    0.0288 (will be added to EATOM!!)


 POSCAR: POSCAR file written by OVITO            
  positions in cartesian coordinates
  No initial velocities read in
 exchange correlation table for  LEXCH =        8
   RHO(1)=    0.500       N(1)  =     2000
   RHO(2)=  100.500       N(2)  =     4000



--------------------------------------------------------------------------------------------------------


 ion  position               nearest neighbor table
   1  0.418  0.393  0.454-   5 1.13
   2  0.595  0.413  0.435-   5 1.08
   3  0.499  0.527  0.531-   5 1.06
   4  0.478  0.528  0.356-   5 1.09
   5  0.504  0.470  0.444-   3 1.06   2 1.08   4 1.09   1 1.13


IMPORTANT INFORMATION: All symmetrisations will be switched off!
NOSYMM: (Re-)initialisation of all symmetry stuff for point group C_1.




Automatic generation of k-mesh.
 generate k-points for:    1    1    1
Space group operators:
 irot       det(A)        alpha          n_x          n_y          n_z        tau_x        tau_y        tau_z
    1     1.000000     0.000000     1.000000     0.000000     0.000000     0.000000     0.000000     0.000000
 
 Subroutine IBZKPT returns following result:
 ===========================================
 
 Found      1 irreducible k-points:
 
 Following reciprocal coordinates:
            Coordinates               Weight
  0.000000  0.000000  0.000000      1.000000
 
 Following cartesian coordinates:
            Coordinates               Weight
  0.000000  0.000000  0.000000      1.000000
 


--------------------------------------------------------------------------------------------------------




 Dimension of arrays:
   k-points           NKPTS =      1   k-points in BZ     NKDIM =      1   number of bands    NBANDS=      8
   number of dos      NEDOS =    301   number of ions     NIONS =      5
   non local maximal  LDIM  =      4   non local SUM 2l+1 LMDIM =      8
   total plane-waves  NPLWV = 313600
   max r-space proj   IRMAX =   4575   max aug-charges    IRDMAX=   3913
   dimension x,y,z NGX =    70 NGY =   64 NGZ =   70
   dimension x,y,z NGXF=   140 NGYF=  128 NGZF=  140
   support grid    NGXF=   140 NGYF=  128 NGZF=  140
   ions per type =               4   1
   NGX,Y,Z   is equivalent  to a cutoff of  11.63, 10.92, 11.38 a.u.
   NGXF,Y,Z  is equivalent  to a cutoff of  23.26, 21.84, 22.76 a.u.

 SYSTEM =  unknown system                          
 POSCAR =  POSCAR file written by OVITO            

 Startparameter for this run:
   NWRITE =      2    write-flag & timer
   PREC   = a         normal or accurate (medium, high low for compatibility)
   ISTART =      0    job   : 0-new  1-cont  2-samecut
   ICHARG =      2    charge: 1-file 2-atom 10-const
   ISPIN  =      1    spin polarized calculation?
   LNONCOLLINEAR =      F non collinear calculations
   LSORBIT =      F    spin-orbit coupling
   INIWAV =      1    electr: 0-lowe 1-rand  2-diag
   LASPH  =      F    aspherical Exc in radial PAW
   METAGGA=      F    non-selfconsistent MetaGGA calc.

 Electronic Relaxation 1
   ENCUT  =  400.0 eV  29.40 Ry    5.42 a.u.  16.32 15.89 16.67*2*pi/ulx,y,z
   ENINI  =  400.0     initial cutoff
   ENAUG  =  644.9 eV  augmentation charge cutoff
   NELM   =    120;   NELMIN=  4; NELMDL= -5     # of ELM steps 
   EDIFF  = 0.1E-05   stopping-criterion for ELM
   LREAL  =      T    real-space projection
   NLSPLINE    = F    spline interpolate recip. space projectors
   LCOMPAT=      F    compatible to vasp.4.4
   GGA_COMPAT  = T    GGA compatible to vasp.4.4-vasp.4.6
   LMAXPAW     = -100 max onsite density
   LMAXMIX     =    2 max onsite mixed and CHGCAR
   VOSKOWN=      0    Vosko Wilk Nusair interpolation
   ROPT   =   -0.00025  -0.00025
 Ionic relaxation
   EDIFFG = 0.1E-04   stopping-criterion for IOM
   NSW    =      0    number of steps for IOM
   NBLOCK =      1;   KBLOCK =      1    inner block; outer block 
   IBRION =     -1    ionic relax: 0-MD 1-quasi-New 2-CG
   NFREE  =      0    steps in history (QN), initial steepest desc. (CG)
   ISIF   =      2    stress and relaxation
   IWAVPR =     10    prediction:  0-non 1-charg 2-wave 3-comb
   ISYM   =      0    0-nonsym 1-usesym 2-fastsym
   LCORR  =      T    Harris-Foulkes like correction to forces

   POTIM  = 0.5000    time-step for ionic-motion
   TEIN   =    0.0    initial temperature
   TEBEG  =    0.0;   TEEND  =   0.0 temperature during run
   SMASS  =  -3.00    Nose mass-parameter (am)
   estimated Nose-frequenzy (Omega)   =  0.10E-29 period in steps =****** mass=  -0.229E-26a.u.
   SCALEE = 1.0000    scale energy and forces
   NPACO  =    256;   APACO  = 16.0  distance and # of slots for P.C.
   PSTRESS=    0.0 pullay stress

  Mass of Ions in am
   POMASS =   1.00 12.01
  Ionic Valenz
   ZVAL   =   1.00  4.00
  Atomic Wigner-Seitz radii
   RWIGS  =  -1.00 -1.00
  virtual crystal weights 
   VCA    =   1.00  1.00
   NELECT =       8.0000    total number of electrons
   NUPDOWN=      -1.0000    fix difference up-down

 DOS related values:
   EMIN   =  10.00;   EMAX   =-10.00  energy-range for DOS
   EFERMI =   0.00
   ISMEAR =     0;   SIGMA  =   0.05  broadening in eV -4-tet -1-fermi 0-gaus

 Electronic relaxation 2 (details)
   IALGO  =     38    algorithm
   LDIAG  =      T    sub-space diagonalisation (order eigenvalues)
   LSUBROT=      F    optimize rotation matrix (better conditioning)
   TURBO    =      0    0=normal 1=particle mesh
   IRESTART =      0    0=no restart 2=restart with 2 vectors
   NREBOOT  =      0    no. of reboots
   NMIN     =      0    reboot dimension
   EREF     =   0.00    reference energy to select bands
   IMIX   =      4    mixing-type and parameters
     AMIX     =   0.40;   BMIX     =  1.00
     AMIX_MAG =   1.60;   BMIX_MAG =  1.00
     AMIN     =   0.10
     WC   =   100.;   INIMIX=   1;  MIXPRE=   1;  MAXMIX= -45

 Intra band minimization:
   WEIMIN = 0.0000     energy-eigenvalue tresh-hold
   EBREAK =  0.31E-07  absolut break condition
   DEPER  =   0.30     relativ break condition  

   TIME   =   0.40     timestep for ELM

  volume/ion in A,a.u.               =     199.29      1344.86
  Fermi-wavevector in a.u.,A,eV,Ry     =   0.327809  0.619470  1.462068  0.107459
  Thomas-Fermi vector in A             =   1.220856

 Write flags
   LWAVE        =      F    write WAVECAR
   LDOWNSAMPLE  =      F    k-point downsampling of WAVECAR
   LCHARG       =      F    write CHGCAR
   LVTOT        =      F    write LOCPOT, total local potential
   LVHAR        =      F    write LOCPOT, Hartree potential only
   LELF         =      F    write electronic localiz. function (ELF)
   LORBIT       =      0    0 simple, 1 ext, 2 COOP (PROOUT), +10 PAW based schemes


 Dipole corrections
   LMONO  =      F    monopole corrections only (constant potential shift)
   LDIPOL =      F    correct potential (dipole corrections)
   IDIPOL =      0    1-x, 2-y, 3-z, 4-all directions 
   EPSILON=  1.0000000 bulk dielectric constant

 Exchange correlation treatment:
   GGA     =    --    GGA type
   LEXCH   =     8    internal setting for exchange type
   VOSKOWN=      0    Vosko Wilk Nusair interpolation
   LHFCALC =     F    Hartree Fock is set to
   LHFONE  =     F    Hartree Fock one center treatment
   AEXX    =    0.0000 exact exchange contribution

 Linear response parameters
   LEPSILON=     F    determine dielectric tensor
   LRPA    =     F    only Hartree local field effects (RPA)
   LNABLA  =     F    use nabla operator in PAW spheres
   LVEL    =     F    velocity operator in full k-point grid
   LINTERFAST=   F  fast interpolation
   KINTER  =     0    interpolate to denser k-point grid
   CSHIFT  =0.1000    complex shift for real part using Kramers Kronig
   OMEGAMAX=  -1.0    maximum frequency
   DEG_THRESHOLD= 0.2000000E-02 threshold for treating states as degnerate
   RTIME   =   -0.100 relaxation time in fs
  (WPLASMAI=    0.000 imaginary part of plasma frequency in eV, 0.658/RTIME)
   DFIELD  = 0.0000000 0.0000000 0.0000000 field for delta impulse in time

 Orbital magnetization related:
   ORBITALMAG=     F  switch on orbital magnetization
   LCHIMAG   =     F  perturbation theory with respect to B field
   DQ        =  0.001000  dq finite difference perturbation B field
   LLRAUG    =     F  two centre corrections for induced B field



--------------------------------------------------------------------------------------------------------


 Static calculation
 charge density and potential will be updated during run
 non-spin polarized calculation
 Variant of blocked Davidson
 Davidson routine will perform the subspace rotation
 perform sub-space diagonalisation
    after iterative eigenvector-optimisation
 modified Broyden-mixing scheme, WC =      100.0
 initial mixing is a Kerker type mixing with AMIX =  0.4000 and BMIX =      1.0000
 Hartree-type preconditioning will be used
 using additional bands            4
 real space projection scheme for non local part
 use partial core corrections
 calculate Harris-corrections to forces   (improved forces if not selfconsistent)
 use gradient corrections 
 use of overlap-Matrix (Vanderbilt PP)
 Gauss-broadening in eV      SIGMA  =   0.05


--------------------------------------------------------------------------------------------------------


  energy-cutoff  :      400.00
  volume of cell :      996.44
      direct lattice vectors                 reciprocal lattice vectors
    10.006619500  0.000000000  0.000000000     0.099933849  0.002269562  0.000748798
    -0.221244500  9.741885200  0.000000000     0.000000000  0.102649536 -0.002424515
    -0.082073000  0.241428100 10.221626300     0.000000000 -0.000000000  0.097831790

  length of vectors
    10.006619500  9.744397179 10.224806488     0.099962422  0.102678165  0.097831790



 k-points in units of 2pi/SCALE and weight: read from INCAR                         
   0.00000000  0.00000000  0.00000000       1.000

 k-points in reciprocal lattice and weights: read from INCAR                         
   0.00000000  0.00000000  0.00000000       1.000

 position of ions in fractional coordinates (direct lattice) 
   0.41844797  0.39279865  0.45392681
   0.59496122  0.41325723  0.43497578
   0.49894237  0.52664867  0.53133520
   0.47754820  0.52827365  0.35633272
   0.50432602  0.46950226  0.44428448

 position of ions in cartesian coordinates  (Angst):
   4.06308990  3.93619000  4.63987020
   5.82641990  4.13091990  4.44615990
   4.83260010  5.25883010  5.43110990
   4.63252020  5.23241000  3.64229990
   4.90626000  4.68109990  4.54130990



--------------------------------------------------------------------------------------------------------


 k-point  1 :   0.0000 0.0000 0.0000  plane waves:   18093

 maximum and minimum number of plane-waves per node :     18093    18093

 maximum number of plane-waves:     18093
 maximum index in each direction: 
   IXMAX=   16   IYMAX=   15   IZMAX=   16
   IXMIN=  -16   IYMIN=  -15   IZMIN=  -16


 serial   3D FFT for wavefunctions
 parallel 3D FFT for charge:
    minimum data exchange during FFTs selected (reduces bandwidth)


 total amount of memory used by VASP MPI-rank0   274697. kBytes
=======================================================================

   base      :      30000. kBytes
   nonlr-proj:       1237. kBytes
   fftplans  :      86584. kBytes
   grid      :     154542. kBytes
   one-center:         15. kBytes
   wavefun   :       2319. kBytes

     INWAV:  cpu time    0.0000: real time    0.0000
 Broyden mixing: mesh for mixing (old mesh)
   NGX = 33   NGY = 31   NGZ = 33
  (NGX  =140   NGY  =128   NGZ  =140)
  gives a total of  33759 points

 initial charge density was supplied:
 charge density of overlapping atoms calculated
 number of electron       8.0000000 magnetization 
 keeping initial charge density in first step


--------------------------------------------------------------------------------------------------------


 Maximum index for non-local projection operator         4388
 Maximum index for augmentation-charges         3601 (set IRDMAX)


--------------------------------------------------------------------------------------------------------


 First call to EWALD:  gamma=   0.177
 Maximum number of real-space cells 3x 3x 3
 Maximum number of reciprocal cells 3x 3x 3

    FEWALD:  cpu time    0.0006: real time    0.0006


--------------------------------------- Iteration      1(   1)  ---------------------------------------


    POTLOK:  cpu time    1.4276: real time    1.4313
    SETDIJ:  cpu time    0.0063: real time    0.0063
     EDDAV:  cpu time    0.4169: real time    0.4179
       DOS:  cpu time    0.0001: real time    0.0001
    --------------------------------------------
      LOOP:  cpu time    1.8511: real time    1.8557

 eigenvalue-minimisations  :    16
 total energy-change (2. order) : 0.6330389E+02  (-0.1515968E+03)
 number of electron       8.0000000 magnetization 
 augmentation part        8.0000000 magnetization 

 Free energy of the ion-electron system (eV)
  ---------------------------------------------------
  alpha Z        PSCENC =         0.24311671
  Ewald energy   TEWEN  =       130.55615131
  -Hartree energ DENC   =      -244.87058062
  -exchange      EXHF   =         0.00000000
  -V(xc)+E(xc)   XCENC  =        22.05509048
  PAW double counting   =       117.05815612     -117.66307307
  entropy T*S    EENTRO =        -0.00000000
  eigenvalues    EBANDS =       -41.11672275
  atomic energy  EATOM  =       197.04175453
  Solvation  Ediel_sol  =         0.00000000
  ---------------------------------------------------
  free energy    TOTEN  =        63.30389273 eV

  energy without entropy =       63.30389273  energy(sigma->0) =       63.30389273


--------------------------------------------------------------------------------------------------------




--------------------------------------- Iteration      1(   2)  ---------------------------------------


     EDDAV:  cpu time    0.7247: real time    0.7265
       DOS:  cpu time    0.0001: real time    0.0001
    --------------------------------------------
      LOOP:  cpu time    0.7248: real time    0.7266

 eigenvalue-minimisations  :    32
 total energy-change (2. order) :-0.7646005E+02  (-0.7646005E+02)
 number of electron       8.0000000 magnetization 
 augmentation part        8.0000000 magnetization 

 Free energy of the ion-electron system (eV)
  ---------------------------------------------------
  alpha Z        PSCENC =         0.24311671
  Ewald energy   TEWEN  =       130.55615131
  -Hartree energ DENC   =      -244.87058062
  -exchange      EXHF   =         0.00000000
  -V(xc)+E(xc)   XCENC  =        22.05509048
  PAW double counting   =       117.05815612     -117.66307307
  entropy T*S    EENTRO =        -0.00000000
  eigenvalues    EBANDS =      -117.57677146
  atomic energy  EATOM  =       197.04175453
  Solvation  Ediel_sol  =         0.00000000
  ---------------------------------------------------
  free energy    TOTEN  =       -13.15615599 eV

  energy without entropy =      -13.15615599  energy(sigma->0) =      -13.15615599


--------------------------------------------------------------------------------------------------------




--------------------------------------- Iteration      1(   3)  ---------------------------------------


     EDDAV:  cpu time    0.4133: real time    0.4143
       DOS:  cpu time    0.0001: real time    0.0001
    --------------------------------------------
      LOOP:  cpu time    0.4134: real time    0.4144

 eigenvalue-minimisations  :    16
 total energy-change (2. order) :-0.1362464E+02  (-0.1362464E+02)
 number of electron       8.0000000 magnetization 
 augmentation part        8.0000000 magnetization 

 Free energy of the ion-electron system (eV)
  ---------------------------------------------------
  alpha Z        PSCENC =         0.24311671
  Ewald energy   TEWEN  =       130.55615131
  -Hartree energ DENC   =      -244.87058062
  -exchange      EXHF   =         0.00000000
  -V(xc)+E(xc)   XCENC  =        22.05509048
  PAW double counting   =       117.05815612     -117.66307307
  entropy T*S    EENTRO =        -0.00000000
  eigenvalues    EBANDS =      -131.20141604
  atomic energy  EATOM  =       197.04175453
  Solvation  Ediel_sol  =         0.00000000
  ---------------------------------------------------
  free energy    TOTEN  =       -26.78080057 eV

  energy without entropy =      -26.78080057  energy(sigma->0) =      -26.78080057


--------------------------------------------------------------------------------------------------------




--------------------------------------- Iteration      1(   4)  ---------------------------------------


     EDDAV:  cpu time    0.7473: real time    0.7491
       DOS:  cpu time    0.0001: real time    0.0001
    --------------------------------------------
      LOOP:  cpu time    0.7474: real time    0.7492

 eigenvalue-minimisations  :    32
 total energy-change (2. order) :-0.7881828E+00  (-0.7881828E+00)
 number of electron       8.0000000 magnetization 
 augmentation part        8.0000000 magnetization 

 Free energy of the ion-electron system (eV)
  ---------------------------------------------------
  alpha Z        PSCENC =         0.24311671
  Ewald energy   TEWEN  =       130.55615131
  -Hartree energ DENC   =      -244.87058062
  -exchange      EXHF   =         0.00000000
  -V(xc)+E(xc)   XCENC  =        22.05509048
  PAW double counting   =       117.05815612     -117.66307307
  entropy T*S    EENTRO =        -0.00000000
  eigenvalues    EBANDS =      -131.98959883
  atomic energy  EATOM  =       197.04175453
  Solvation  Ediel_sol  =         0.00000000
  ---------------------------------------------------
  free energy    TOTEN  =       -27.56898335 eV

  energy without entropy =      -27.56898335  energy(sigma->0) =      -27.56898335


--------------------------------------------------------------------------------------------------------




--------------------------------------- Iteration      1(   5)  ---------------------------------------


     EDDAV:  cpu time    0.7428: real time    0.7446
       DOS:  cpu time    0.0001: real time    0.0001
    CHARGE:  cpu time    0.0844: real time    0.0846
    MIXING:  cpu time    0.0317: real time    0.0317
    --------------------------------------------
      LOOP:  cpu time    0.8590: real time    0.8610

 eigenvalue-minimisations  :    32
 total energy-change (2. order) :-0.4186189E-03  (-0.4186199E-03)
 number of electron       8.0000004 magnetization 
 augmentation part        0.2281750 magnetization 

 Broyden mixing:
  rms(total) = 0.88660E+00    rms(broyden)= 0.88639E+00
  rms(prec ) = 0.12486E+01
  weight for this iteration     100.00

 Free energy of the ion-electron system (eV)
  ---------------------------------------------------
  alpha Z        PSCENC =         0.24311671
  Ewald energy   TEWEN  =       130.55615131
  -Hartree energ DENC   =      -244.87058062
  -exchange      EXHF   =         0.00000000
  -V(xc)+E(xc)   XCENC  =        22.05509048
  PAW double counting   =       117.05815612     -117.66307307
  entropy T*S    EENTRO =        -0.00000000
  eigenvalues    EBANDS =      -131.99001745
  atomic energy  EATOM  =       197.04175453
  Solvation  Ediel_sol  =         0.00000000
  ---------------------------------------------------
  free energy    TOTEN  =       -27.56940197 eV

  energy without entropy =      -27.56940197  energy(sigma->0) =      -27.56940197


--------------------------------------------------------------------------------------------------------




--------------------------------------- Iteration      1(   6)  ---------------------------------------


    POTLOK:  cpu time    1.5331: real time    1.5367
    SETDIJ:  cpu time    0.0063: real time    0.0063
     EDDAV:  cpu time    0.5985: real time    0.5999
       DOS:  cpu time    0.0001: real time    0.0001
    CHARGE:  cpu time    0.0797: real time    0.0798
    MIXING:  cpu time    0.0329: real time    0.0330
    --------------------------------------------
      LOOP:  cpu time    2.2505: real time    2.2558

 eigenvalue-minimisations  :    24
 total energy-change (2. order) : 0.2977965E+01  (-0.9040699E+00)
 number of electron       8.0000003 magnetization 
 augmentation part        0.1996284 magnetization 

 Broyden mixing:
  rms(total) = 0.45200E+00    rms(broyden)= 0.45188E+00
  rms(prec ) = 0.56577E+00
  weight for this iteration     100.00

 eigenvalues of (default mixing * dielectric matrix)
  average eigenvalue GAMMA=   1.2027
  1.2027

 Free energy of the ion-electron system (eV)
  ---------------------------------------------------
  alpha Z        PSCENC =         0.24311671
  Ewald energy   TEWEN  =       130.55615131
  -Hartree energ DENC   =      -264.91270498
  -exchange      EXHF   =         0.00000000
  -V(xc)+E(xc)   XCENC  =        23.27038227
  PAW double counting   =       241.26457076     -242.04899945
  entropy T*S    EENTRO =        -0.00000000
  eigenvalues    EBANDS =      -110.00570860
  atomic energy  EATOM  =       197.04175453
  Solvation  Ediel_sol  =         0.00000000
  ---------------------------------------------------
  free energy    TOTEN  =       -24.59143744 eV

  energy without entropy =      -24.59143744  energy(sigma->0) =      -24.59143744


--------------------------------------------------------------------------------------------------------




--------------------------------------- Iteration      1(   7)  ---------------------------------------


    POTLOK:  cpu time    1.5594: real time    1.5631
    SETDIJ:  cpu time    0.0063: real time    0.0063
     EDDAV:  cpu time    0.7812: real time    0.7830
       DOS:  cpu time    0.0001: real time    0.0001
    CHARGE:  cpu time    0.0793: real time    0.0795
    MIXING:  cpu time    0.0341: real time    0.0342
    --------------------------------------------
      LOOP:  cpu time    2.4604: real time    2.4662

 eigenvalue-minimisations  :    32
 total energy-change (2. order) : 0.4975004E+00  (-0.7826687E-01)
 number of electron       8.0000003 magnetization 
 augmentation part        0.1909442 magnetization 

 Broyden mixing:
  rms(total) = 0.23012E+00    rms(broyden)= 0.23008E+00
  rms(prec ) = 0.28187E+00
  weight for this iteration     100.00

 eigenvalues of (default mixing * dielectric matrix)
  average eigenvalue GAMMA=   1.6983
  1.2579  2.1388

 Free energy of the ion-electron system (eV)
  ---------------------------------------------------
  alpha Z        PSCENC =         0.24311671
  Ewald energy   TEWEN  =       130.55615131
  -Hartree energ DENC   =      -275.22235279
  -exchange      EXHF   =         0.00000000
  -V(xc)+E(xc)   XCENC  =        24.04341710
  PAW double counting   =       373.32241722     -374.13671229
  entropy T*S    EENTRO =        -0.00000000
  eigenvalues    EBANDS =       -99.94172879
  atomic energy  EATOM  =       197.04175453
  Solvation  Ediel_sol  =         0.00000000
  ---------------------------------------------------
  free energy    TOTEN  =       -24.09393699 eV

  energy without entropy =      -24.09393699  energy(sigma->0) =      -24.09393699


--------------------------------------------------------------------------------------------------------




--------------------------------------- Iteration      1(   8)  ---------------------------------------


    POTLOK:  cpu time    1.5730: real time    1.5768
    SETDIJ:  cpu time    0.0062: real time    0.0062
     EDDAV:  cpu time    0.7823: real time    0.7842
       DOS:  cpu time    0.0001: real time    0.0001
    CHARGE:  cpu time    0.0833: real time    0.0835
    MIXING:  cpu time    0.0342: real time    0.0343
    --------------------------------------------
      LOOP:  cpu time    2.4792: real time    2.4851

 eigenvalue-minimisations  :    32
 total energy-change (2. order) : 0.1649136E+00  (-0.1844165E-01)
 number of electron       8.0000003 magnetization 
 augmentation part        0.1883258 magnetization 

 Broyden mixing:
  rms(total) = 0.27401E-01    rms(broyden)= 0.27370E-01
  rms(prec ) = 0.55730E-01
  weight for this iteration     100.00

 eigenvalues of (default mixing * dielectric matrix)
  average eigenvalue GAMMA=   1.5516
  2.1447  1.1190  1.3912

 Free energy of the ion-electron system (eV)
  ---------------------------------------------------
  alpha Z        PSCENC =         0.24311671
  Ewald energy   TEWEN  =       130.55615131
  -Hartree energ DENC   =      -282.25346527
  -exchange      EXHF   =         0.00000000
  -V(xc)+E(xc)   XCENC  =        24.67025205
  PAW double counting   =       490.07397934     -490.87397751
  entropy T*S    EENTRO =        -0.00000000
  eigenvalues    EBANDS =       -93.38683459
  atomic energy  EATOM  =       197.04175453
  Solvation  Ediel_sol  =         0.00000000
  ---------------------------------------------------
  free energy    TOTEN  =       -23.92902342 eV

  energy without entropy =      -23.92902342  energy(sigma->0) =      -23.92902342


--------------------------------------------------------------------------------------------------------




--------------------------------------- Iteration      1(   9)  ---------------------------------------


    POTLOK:  cpu time    1.5673: real time    1.5710
    SETDIJ:  cpu time    0.0064: real time    0.0064
     EDDAV:  cpu time    0.8108: real time    0.8128
       DOS:  cpu time    0.0001: real time    0.0001
    CHARGE:  cpu time    0.0855: real time    0.0857
    MIXING:  cpu time    0.0358: real time    0.0359
    --------------------------------------------
      LOOP:  cpu time    2.5058: real time    2.5118

 eigenvalue-minimisations  :    32
 total energy-change (2. order) : 0.7146008E-02  (-0.3620623E-03)
 number of electron       8.0000003 magnetization 
 augmentation part        0.1877664 magnetization 

 Broyden mixing:
  rms(total) = 0.16610E-01    rms(broyden)= 0.16606E-01
  rms(prec ) = 0.36993E-01
  weight for this iteration     100.00

 eigenvalues of (default mixing * dielectric matrix)
  average eigenvalue GAMMA=   1.8886
  2.9183  2.4486  0.9835  1.2039

 Free energy of the ion-electron system (eV)
  ---------------------------------------------------
  alpha Z        PSCENC =         0.24311671
  Ewald energy   TEWEN  =       130.55615131
  -Hartree energ DENC   =      -283.60299838
  -exchange      EXHF   =         0.00000000
  -V(xc)+E(xc)   XCENC  =        24.74290450
  PAW double counting   =       488.00514224     -488.80299357
  entropy T*S    EENTRO =        -0.00000000
  eigenvalues    EBANDS =       -92.10495476
  atomic energy  EATOM  =       197.04175453
  Solvation  Ediel_sol  =         0.00000000
  ---------------------------------------------------
  free energy    TOTEN  =       -23.92187742 eV

  energy without entropy =      -23.92187742  energy(sigma->0) =      -23.92187742


--------------------------------------------------------------------------------------------------------




--------------------------------------- Iteration      1(  10)  ---------------------------------------


    POTLOK:  cpu time    1.5473: real time    1.5510
    SETDIJ:  cpu time    0.0065: real time    0.0066
     EDDAV:  cpu time    0.4622: real time    0.4633
       DOS:  cpu time    0.0001: real time    0.0001
    CHARGE:  cpu time    0.0885: real time    0.0887
    MIXING:  cpu time    0.0381: real time    0.0382
    --------------------------------------------
      LOOP:  cpu time    2.1427: real time    2.1478

 eigenvalue-minimisations  :    16
 total energy-change (2. order) : 0.8983420E-02  (-0.5640610E-03)
 number of electron       8.0000003 magnetization 
 augmentation part        0.1875661 magnetization 

 Broyden mixing:
  rms(total) = 0.70046E-02    rms(broyden)= 0.70029E-02
  rms(prec ) = 0.16618E-01
  weight for this iteration     100.00

 eigenvalues of (default mixing * dielectric matrix)
  average eigenvalue GAMMA=   1.9301
  3.1146  1.0036  1.2023  2.1650  2.1650

 Free energy of the ion-electron system (eV)
  ---------------------------------------------------
  alpha Z        PSCENC =         0.24311671
  Ewald energy   TEWEN  =       130.55615131
  -Hartree energ DENC   =      -285.24398657
  -exchange      EXHF   =         0.00000000
  -V(xc)+E(xc)   XCENC  =        24.81613170
  PAW double counting   =       478.54113596     -479.33453819
  entropy T*S    EENTRO =        -0.00000000
  eigenvalues    EBANDS =       -90.53265945
  atomic energy  EATOM  =       197.04175453
  Solvation  Ediel_sol  =         0.00000000
  ---------------------------------------------------
  free energy    TOTEN  =       -23.91289400 eV

  energy without entropy =      -23.91289400  energy(sigma->0) =      -23.91289400


--------------------------------------------------------------------------------------------------------




--------------------------------------- Iteration      1(  11)  ---------------------------------------


    POTLOK:  cpu time    1.4537: real time    1.4571
    SETDIJ:  cpu time    0.0064: real time    0.0064
     EDDAV:  cpu time    0.6375: real time    0.6390
       DOS:  cpu time    0.0001: real time    0.0001
    CHARGE:  cpu time    0.0925: real time    0.0928
    MIXING:  cpu time    0.0371: real time    0.0372
    --------------------------------------------
      LOOP:  cpu time    2.2273: real time    2.2326

 eigenvalue-minimisations  :    24
 total energy-change (2. order) :-0.7591225E-02  (-0.3444662E-03)
 number of electron       8.0000003 magnetization 
 augmentation part        0.1871336 magnetization 

 Broyden mixing:
  rms(total) = 0.61033E-02    rms(broyden)= 0.61023E-02
  rms(prec ) = 0.10643E-01
  weight for this iteration     100.00

 eigenvalues of (default mixing * dielectric matrix)
  average eigenvalue GAMMA=   2.1075
  4.3551  2.8452  2.2052  1.2430  0.9982  0.9982

 Free energy of the ion-electron system (eV)
  ---------------------------------------------------
  alpha Z        PSCENC =         0.24311671
  Ewald energy   TEWEN  =       130.55615131
  -Hartree energ DENC   =      -286.17582635
  -exchange      EXHF   =         0.00000000
  -V(xc)+E(xc)   XCENC  =        24.85361231
  PAW double counting   =       481.78874708     -482.58389241
  entropy T*S    EENTRO =        -0.00000000
  eigenvalues    EBANDS =       -89.64414840
  atomic energy  EATOM  =       197.04175453
  Solvation  Ediel_sol  =         0.00000000
  ---------------------------------------------------
  free energy    TOTEN  =       -23.92048522 eV

  energy without entropy =      -23.92048522  energy(sigma->0) =      -23.92048522


--------------------------------------------------------------------------------------------------------




--------------------------------------- Iteration      1(  12)  ---------------------------------------


    POTLOK:  cpu time    1.4348: real time    1.4382
    SETDIJ:  cpu time    0.0064: real time    0.0064
     EDDAV:  cpu time    0.4567: real time    0.4577
       DOS:  cpu time    0.0001: real time    0.0001
    CHARGE:  cpu time    0.0816: real time    0.0818
    MIXING:  cpu time    0.0374: real time    0.0375
    --------------------------------------------
      LOOP:  cpu time    2.0169: real time    2.0217

 eigenvalue-minimisations  :    16
 total energy-change (2. order) :-0.3511849E-02  (-0.7122955E-04)
 number of electron       8.0000003 magnetization 
 augmentation part        0.1873134 magnetization 

 Broyden mixing:
  rms(total) = 0.23944E-02    rms(broyden)= 0.23943E-02
  rms(prec ) = 0.51734E-02
  weight for this iteration     100.00

 eigenvalues of (default mixing * dielectric matrix)
  average eigenvalue GAMMA=   2.2762
  4.9958  3.0513  2.6696  1.9399  1.2429  1.0171  1.0171

 Free energy of the ion-electron system (eV)
  ---------------------------------------------------
  alpha Z        PSCENC =         0.24311671
  Ewald energy   TEWEN  =       130.55615131
  -Hartree energ DENC   =      -285.93559785
  -exchange      EXHF   =         0.00000000
  -V(xc)+E(xc)   XCENC  =        24.82613471
  PAW double counting   =       477.74163083     -478.53608218
  entropy T*S    EENTRO =        -0.00000000
  eigenvalues    EBANDS =       -89.86110513
  atomic energy  EATOM  =       197.04175453
  Solvation  Ediel_sol  =         0.00000000
  ---------------------------------------------------
  free energy    TOTEN  =       -23.92399707 eV

  energy without entropy =      -23.92399707  energy(sigma->0) =      -23.92399707


--------------------------------------------------------------------------------------------------------




--------------------------------------- Iteration      1(  13)  ---------------------------------------


    POTLOK:  cpu time    1.3771: real time    1.3803
    SETDIJ:  cpu time    0.0064: real time    0.0064
     EDDAV:  cpu time    0.8227: real time    0.8246
       DOS:  cpu time    0.0001: real time    0.0001
    CHARGE:  cpu time    0.0863: real time    0.0865
    MIXING:  cpu time    0.0383: real time    0.0384
    --------------------------------------------
      LOOP:  cpu time    2.3308: real time    2.3364

 eigenvalue-minimisations  :    32
 total energy-change (2. order) :-0.3960657E-02  (-0.8934014E-04)
 number of electron       8.0000003 magnetization 
 augmentation part        0.1873072 magnetization 

 Broyden mixing:
  rms(total) = 0.28586E-02    rms(broyden)= 0.28581E-02
  rms(prec ) = 0.37714E-02
  weight for this iteration     100.00

 eigenvalues of (default mixing * dielectric matrix)
  average eigenvalue GAMMA=   2.2867
  5.8340  3.5195  2.5012  2.1777  1.2831  1.0494  1.0209  0.9079

 Free energy of the ion-electron system (eV)
  ---------------------------------------------------
  alpha Z        PSCENC =         0.24311671
  Ewald energy   TEWEN  =       130.55615131
  -Hartree energ DENC   =      -286.03939094
  -exchange      EXHF   =         0.00000000
  -V(xc)+E(xc)   XCENC  =        24.82836366
  PAW double counting   =       480.07624445     -480.86994867
  entropy T*S    EENTRO =        -0.00000000
  eigenvalues    EBANDS =       -89.76424878
  atomic energy  EATOM  =       197.04175453
  Solvation  Ediel_sol  =         0.00000000
  ---------------------------------------------------
  free energy    TOTEN  =       -23.92795773 eV

  energy without entropy =      -23.92795773  energy(sigma->0) =      -23.92795773


--------------------------------------------------------------------------------------------------------




--------------------------------------- Iteration      1(  14)  ---------------------------------------


    POTLOK:  cpu time    1.3762: real time    1.3794
    SETDIJ:  cpu time    0.0065: real time    0.0065
     EDDAV:  cpu time    0.8256: real time    0.8275
       DOS:  cpu time    0.0001: real time    0.0001
    CHARGE:  cpu time    0.0824: real time    0.0826
    MIXING:  cpu time    0.0390: real time    0.0391
    --------------------------------------------
      LOOP:  cpu time    2.3297: real time    2.3352

 eigenvalue-minimisations  :    32
 total energy-change (2. order) :-0.7407832E-03  (-0.1045651E-04)
 number of electron       8.0000003 magnetization 
 augmentation part        0.1872759 magnetization 

 Broyden mixing:
  rms(total) = 0.85383E-03    rms(broyden)= 0.85343E-03
  rms(prec ) = 0.15932E-02
  weight for this iteration     100.00

 eigenvalues of (default mixing * dielectric matrix)
  average eigenvalue GAMMA=   2.5683
  7.0896  4.4876  2.8390  2.4058  1.9820  1.2824  1.0016  1.0016  1.0254

 Free energy of the ion-electron system (eV)
  ---------------------------------------------------
  alpha Z        PSCENC =         0.24311671
  Ewald energy   TEWEN  =       130.55615131
  -Hartree energ DENC   =      -285.99255173
  -exchange      EXHF   =         0.00000000
  -V(xc)+E(xc)   XCENC  =        24.82173937
  PAW double counting   =       478.83643680     -479.63063647
  entropy T*S    EENTRO =        -0.00000000
  eigenvalues    EBANDS =       -89.80470904
  atomic energy  EATOM  =       197.04175453
  Solvation  Ediel_sol  =         0.00000000
  ---------------------------------------------------
  free energy    TOTEN  =       -23.92869851 eV

  energy without entropy =      -23.92869851  energy(sigma->0) =      -23.92869851


--------------------------------------------------------------------------------------------------------




--------------------------------------- Iteration      1(  15)  ---------------------------------------


    POTLOK:  cpu time    1.3935: real time    1.3968
    SETDIJ:  cpu time    0.0066: real time    0.0066
     EDDAV:  cpu time    0.4617: real time    0.4628
       DOS:  cpu time    0.0001: real time    0.0001
    CHARGE:  cpu time    0.0877: real time    0.0879
    MIXING:  cpu time    0.0429: real time    0.0430
    --------------------------------------------
      LOOP:  cpu time    1.9926: real time    1.9973

 eigenvalue-minimisations  :    16
 total energy-change (2. order) :-0.5551916E-03  (-0.7536608E-05)
 number of electron       8.0000003 magnetization 
 augmentation part        0.1873022 magnetization 

 Broyden mixing:
  rms(total) = 0.49147E-03    rms(broyden)= 0.49143E-03
  rms(prec ) = 0.75513E-03
  weight for this iteration     100.00

 eigenvalues of (default mixing * dielectric matrix)
  average eigenvalue GAMMA=   2.4738
  7.3019  4.5563  2.8424  2.4755  2.0624  1.2859  1.2041  1.0052  1.0023  1.0023

 Free energy of the ion-electron system (eV)
  ---------------------------------------------------
  alpha Z        PSCENC =         0.24311671
  Ewald energy   TEWEN  =       130.55615131
  -Hartree energ DENC   =      -285.96717636
  -exchange      EXHF   =         0.00000000
  -V(xc)+E(xc)   XCENC  =        24.81981535
  PAW double counting   =       478.54942524     -479.34347362
  entropy T*S    EENTRO =        -0.00000000
  eigenvalues    EBANDS =       -89.82886687
  atomic energy  EATOM  =       197.04175453
  Solvation  Ediel_sol  =         0.00000000
  ---------------------------------------------------
  free energy    TOTEN  =       -23.92925370 eV

  energy without entropy =      -23.92925370  energy(sigma->0) =      -23.92925370


--------------------------------------------------------------------------------------------------------




--------------------------------------- Iteration      1(  16)  ---------------------------------------


    POTLOK:  cpu time    1.3845: real time    1.3878
    SETDIJ:  cpu time    0.0064: real time    0.0064
     EDDAV:  cpu time    0.8291: real time    0.8311
       DOS:  cpu time    0.0001: real time    0.0001
    CHARGE:  cpu time    0.0885: real time    0.0887
    MIXING:  cpu time    0.0409: real time    0.0410
    --------------------------------------------
      LOOP:  cpu time    2.3495: real time    2.3551

 eigenvalue-minimisations  :    32
 total energy-change (2. order) :-0.6371454E-04  (-0.4544727E-06)
 number of electron       8.0000003 magnetization 
 augmentation part        0.1872899 magnetization 

 Broyden mixing:
  rms(total) = 0.19893E-03    rms(broyden)= 0.19892E-03
  rms(prec ) = 0.32613E-03
  weight for this iteration     100.00

 eigenvalues of (default mixing * dielectric matrix)
  average eigenvalue GAMMA=   2.6780
  8.1957  4.7250  4.0322  2.5460  2.5460  2.0180  1.2792  1.1303  0.9897  0.9897
  1.0064

 Free energy of the ion-electron system (eV)
  ---------------------------------------------------
  alpha Z        PSCENC =         0.24311671
  Ewald energy   TEWEN  =       130.55615131
  -Hartree energ DENC   =      -285.98898024
  -exchange      EXHF   =         0.00000000
  -V(xc)+E(xc)   XCENC  =        24.82105602
  PAW double counting   =       478.66409360     -479.45823212
  entropy T*S    EENTRO =        -0.00000000
  eigenvalues    EBANDS =       -89.80827724
  atomic energy  EATOM  =       197.04175453
  Solvation  Ediel_sol  =         0.00000000
  ---------------------------------------------------
  free energy    TOTEN  =       -23.92931742 eV

  energy without entropy =      -23.92931742  energy(sigma->0) =      -23.92931742


--------------------------------------------------------------------------------------------------------




--------------------------------------- Iteration      1(  17)  ---------------------------------------


    POTLOK:  cpu time    1.4871: real time    1.4908
    SETDIJ:  cpu time    0.0064: real time    0.0064
     EDDAV:  cpu time    0.8231: real time    0.8251
       DOS:  cpu time    0.0001: real time    0.0001
    CHARGE:  cpu time    0.0879: real time    0.0881
    MIXING:  cpu time    0.0423: real time    0.0424
    --------------------------------------------
      LOOP:  cpu time    2.4469: real time    2.4528

 eigenvalue-minimisations  :    32
 total energy-change (2. order) :-0.5161633E-04  (-0.3651881E-06)
 number of electron       8.0000003 magnetization 
 augmentation part        0.1872805 magnetization 

 Broyden mixing:
  rms(total) = 0.15078E-03    rms(broyden)= 0.15076E-03
  rms(prec ) = 0.23512E-03
  weight for this iteration     100.00

 eigenvalues of (default mixing * dielectric matrix)
  average eigenvalue GAMMA=   2.5509
  8.3725  5.1415  3.7512  2.6640  2.3592  1.9290  1.2791  1.1571  0.9739  0.9739
  1.0047  1.0047

 Free energy of the ion-electron system (eV)
  ---------------------------------------------------
  alpha Z        PSCENC =         0.24311671
  Ewald energy   TEWEN  =       130.55615131
  -Hartree energ DENC   =      -286.00659640
  -exchange      EXHF   =         0.00000000
  -V(xc)+E(xc)   XCENC  =        24.82205776
  PAW double counting   =       478.77042484     -479.56459896
  entropy T*S    EENTRO =        -0.00000000
  eigenvalues    EBANDS =       -89.79167883
  atomic energy  EATOM  =       197.04175453
  Solvation  Ediel_sol  =         0.00000000
  ---------------------------------------------------
  free energy    TOTEN  =       -23.92936903 eV

  energy without entropy =      -23.92936903  energy(sigma->0) =      -23.92936903


--------------------------------------------------------------------------------------------------------




--------------------------------------- Iteration      1(  18)  ---------------------------------------


    POTLOK:  cpu time    1.4958: real time    1.4994
    SETDIJ:  cpu time    0.0064: real time    0.0064
     EDDAV:  cpu time    0.8321: real time    0.8340
       DOS:  cpu time    0.0001: real time    0.0001
    CHARGE:  cpu time    0.0883: real time    0.0886
    MIXING:  cpu time    0.0442: real time    0.0443
    --------------------------------------------
      LOOP:  cpu time    2.4669: real time    2.4727

 eigenvalue-minimisations  :    32
 total energy-change (2. order) :-0.1797616E-05  (-0.5533925E-07)
 number of electron       8.0000003 magnetization 
 augmentation part        0.1872876 magnetization 

 Broyden mixing:
  rms(total) = 0.56266E-04    rms(broyden)= 0.56234E-04
  rms(prec ) = 0.90342E-04
  weight for this iteration     100.00

 eigenvalues of (default mixing * dielectric matrix)
  average eigenvalue GAMMA=   2.5953
  8.5246  5.3539  3.9080  2.8245  2.4948  2.3770  1.7867  1.2484  1.2484  1.0008
  1.0008  0.9853  0.9853

 Free energy of the ion-electron system (eV)
  ---------------------------------------------------
  alpha Z        PSCENC =         0.24311671
  Ewald energy   TEWEN  =       130.55615131
  -Hartree energ DENC   =      -286.00002073
  -exchange      EXHF   =         0.00000000
  -V(xc)+E(xc)   XCENC  =        24.82169100
  PAW double counting   =       478.74849398     -479.54262996
  entropy T*S    EENTRO =        -0.00000000
  eigenvalues    EBANDS =       -89.79792768
  atomic energy  EATOM  =       197.04175453
  Solvation  Ediel_sol  =         0.00000000
  ---------------------------------------------------
  free energy    TOTEN  =       -23.92937083 eV

  energy without entropy =      -23.92937083  energy(sigma->0) =      -23.92937083


--------------------------------------------------------------------------------------------------------




--------------------------------------- Iteration      1(  19)  ---------------------------------------


    POTLOK:  cpu time    1.5153: real time    1.5189
    SETDIJ:  cpu time    0.0064: real time    0.0064
     EDDAV:  cpu time    0.4648: real time    0.4659
       DOS:  cpu time    0.0001: real time    0.0001
    CHARGE:  cpu time    0.0881: real time    0.0883
    MIXING:  cpu time    0.0442: real time    0.0443
    --------------------------------------------
      LOOP:  cpu time    2.1189: real time    2.1239

 eigenvalue-minimisations  :    16
 total energy-change (2. order) :-0.4623117E-05  (-0.1929466E-07)
 number of electron       8.0000003 magnetization 
 augmentation part        0.1872887 magnetization 

 Broyden mixing:
  rms(total) = 0.23850E-04    rms(broyden)= 0.23843E-04
  rms(prec ) = 0.38865E-04
  weight for this iteration     100.00

 eigenvalues of (default mixing * dielectric matrix)
  average eigenvalue GAMMA=   2.5176
  8.5721  5.3939  4.0725  2.9920  2.5663  2.2726  1.9217  1.2478  1.2478  0.9887
  1.0164  1.0164  0.9694  0.9694

 Free energy of the ion-electron system (eV)
  ---------------------------------------------------
  alpha Z        PSCENC =         0.24311671
  Ewald energy   TEWEN  =       130.55615131
  -Hartree energ DENC   =      -285.99732717
  -exchange      EXHF   =         0.00000000
  -V(xc)+E(xc)   XCENC  =        24.82144946
  PAW double counting   =       478.73632018     -479.53044596
  entropy T*S    EENTRO =        -0.00000000
  eigenvalues    EBANDS =       -89.80039453
  atomic energy  EATOM  =       197.04175453
  Solvation  Ediel_sol  =         0.00000000
  ---------------------------------------------------
  free energy    TOTEN  =       -23.92937545 eV

  energy without entropy =      -23.92937545  energy(sigma->0) =      -23.92937545


--------------------------------------------------------------------------------------------------------




--------------------------------------- Iteration      1(  20)  ---------------------------------------


    POTLOK:  cpu time    1.5102: real time    1.5137
    SETDIJ:  cpu time    0.0064: real time    0.0065
     EDDAV:  cpu time    0.8285: real time    0.8305
       DOS:  cpu time    0.0001: real time    0.0001
    --------------------------------------------
      LOOP:  cpu time    2.3452: real time    2.3508

 eigenvalue-minimisations  :    32
 total energy-change (2. order) :-0.6364401E-06  (-0.1172289E-08)
 number of electron       8.0000003 magnetization 
 augmentation part        0.1872887 magnetization 

 Free energy of the ion-electron system (eV)
  ---------------------------------------------------
  alpha Z        PSCENC =         0.24311671
  Ewald energy   TEWEN  =       130.55615131
  -Hartree energ DENC   =      -285.99778402
  -exchange      EXHF   =         0.00000000
  -V(xc)+E(xc)   XCENC  =        24.82149304
  PAW double counting   =       478.74183150     -479.53595862
  entropy T*S    EENTRO =        -0.00000000
  eigenvalues    EBANDS =       -89.79998055
  atomic energy  EATOM  =       197.04175453
  Solvation  Ediel_sol  =         0.00000000
  ---------------------------------------------------
  free energy    TOTEN  =       -23.92937609 eV

  energy without entropy =      -23.92937609  energy(sigma->0) =      -23.92937609


--------------------------------------------------------------------------------------------------------




 average (electrostatic) potential at core
  the test charge radii are     0.5201  0.6991
  (the norm of the test charge is              1.0000)
       1 -41.1684       2 -41.7175       3 -41.8052       4 -41.5716       5 -57.9278



 E-fermi :  -8.5428     XC(G=0):  -0.6970     alpha+bet : -0.2114


 k-point     1 :       0.0000    0.0000    0.0000
  band No.  band energies     occupation 
      1     -16.9609      2.00000
      2      -9.6293      2.00000
      3      -9.5305      2.00000
      4      -8.7793      2.00000
      5      -0.5254      0.00000
      6       0.9924      0.00000
      7       0.9955      0.00000
      8       1.0561      0.00000


--------------------------------------------------------------------------------------------------------


 soft charge-density along one line, spin component           1
         0         1         2         3         4         5         6         7         8         9
 total charge-density along one line

 pseudopotential strength for first ion, spin component:           1
 -2.338  -4.027  -0.001   0.000  -0.001
 -4.027  -6.852  -0.003   0.000  -0.004
 -0.001  -0.003  -0.339  -0.000   0.002
  0.000   0.000  -0.000  -0.341  -0.000
 -0.001  -0.004   0.002  -0.000  -0.338
 total augmentation occupancy for first ion, spin component:           1
  3.424  -0.618   0.256  -0.034   0.292
 -0.618   0.127  -0.049   0.006  -0.054
  0.256  -0.049   0.024  -0.002   0.018
 -0.034   0.006  -0.002   0.009  -0.002
  0.292  -0.054   0.018  -0.002   0.029


------------------------ aborting loop because EDIFF is reached ----------------------------------------


    CHARGE:  cpu time    0.0846: real time    0.0848
    FORLOC:  cpu time    0.1085: real time    0.1087
    FORNL :  cpu time    0.1587: real time    0.1591
    STRESS:  cpu time    0.5832: real time    0.5846
    FORCOR:  cpu time    1.5977: real time    1.6015
    FORHAR:  cpu time    0.5267: real time    0.5280
    MIXING:  cpu time    0.0457: real time    0.0458
    OFIELD:  cpu time    0.0000: real time    0.0000

  FORCE on cell =-STRESS in cart. coord.  units (eV):
  Direction    XX          YY          ZZ          XY          YZ          ZX
  --------------------------------------------------------------------------------------
  Alpha Z     0.24312     0.24312     0.24312
  Ewald      44.18242    41.40190    44.97181    -7.51609     2.30998     0.39376
  Hartree    95.72509    97.15759    93.11556    -1.49168     0.41228     0.02585
  E(xc)     -27.28520   -27.31942   -27.28217    -0.02209     0.00264     0.00236
  Local    -198.62671  -198.28414  -195.56898     7.16925    -2.04477    -0.33865
  n-local   -16.03272   -16.07537   -16.09577     0.01042    -0.04094     0.00415
  augment     0.11352     0.11972     0.10172     0.01517    -0.00661    -0.00033
  Kinetic   101.16644   102.95801   100.94714     1.35454    -0.16903    -0.12338
  Fock        0.00000     0.00000     0.00000     0.00000     0.00000     0.00000
  -------------------------------------------------------------------------------------
  Total      -0.51405     0.20141     0.43242    -0.48048     0.46354    -0.03623
  in kB      -0.82655     0.32385     0.69529    -0.77257     0.74534    -0.05826
  external pressure =        0.06 kB  Pullay stress =        0.00 kB


 VOLUME and BASIS-vectors are now :
 -----------------------------------------------------------------------------
  energy-cutoff  :      400.00
  volume of cell :      996.44
      direct lattice vectors                 reciprocal lattice vectors
    10.006619500  0.000000000  0.000000000     0.099933849  0.002269562  0.000748798
    -0.221244500  9.741885200  0.000000000     0.000000000  0.102649536 -0.002424515
    -0.082073000  0.241428100 10.221626300     0.000000000 -0.000000000  0.097831790

  length of vectors
    10.006619500  9.744397179 10.224806488     0.099962422  0.102678165  0.097831790


 FORCES acting on ions
    electron-ion (+dipol)            ewald-force                    non-local-force                 convergence-correction
 -----------------------------------------------------------------------------------------------
   0.385E+02 0.342E+02 -.455E+01   -.415E+02 -.372E+02 0.493E+01   0.375E+01 0.324E+01 -.430E+00   -.252E-04 -.258E-05 0.887E-05
   -.463E+02 0.270E+02 0.477E+01   0.519E+02 -.301E+02 -.534E+01   -.495E+01 0.303E+01 0.516E+00   0.139E-04 -.233E-04 0.169E-05
   0.309E+01 -.298E+02 -.454E+02   -.331E+01 0.339E+02 0.513E+02   0.510E+00 -.321E+01 -.507E+01   -.242E-04 -.360E-05 0.471E-04
   0.127E+02 -.273E+02 0.440E+02   -.139E+02 0.304E+02 -.488E+02   0.150E+01 -.277E+01 0.464E+01   -.300E-04 -.125E-05 -.377E-04
   -.678E+01 -.303E+01 0.173E+01   0.687E+01 0.294E+01 -.212E+01   -.203E+01 -.134E+01 -.172E+00   -.191E-03 -.792E-04 0.430E-04
 -----------------------------------------------------------------------------------------------
   0.122E+01 0.104E+01 0.522E+00   0.355E-14 0.000E+00 0.000E+00   -.122E+01 -.104E+01 -.522E+00   -.256E-03 -.110E-03 0.629E-04


 POSITION                                       TOTAL-FORCE (eV/Angst)
 -----------------------------------------------------------------------------------
      4.06309      3.93619      4.63987         0.688766      0.257381     -0.051697
      5.82642      4.13092      4.44616         0.612048     -0.105068     -0.060694
      4.83260      5.25883      5.43111         0.297878      0.885999      0.802007
      4.63252      5.23241      3.64230         0.347189      0.396460     -0.123678
      4.90626      4.68110      4.54131        -1.945882     -1.434772     -0.565937
 -----------------------------------------------------------------------------------
    total drift:                                0.000202     -0.000062      0.000198


--------------------------------------------------------------------------------------------------------



  FREE ENERGIE OF THE ION-ELECTRON SYSTEM (eV)
  ---------------------------------------------------
  free  energy   TOTEN  =       -23.92937609 eV

  energy  without entropy=      -23.92937609  energy(sigma->0) =      -23.92937609



--------------------------------------------------------------------------------------------------------


    POTLOK:  cpu time    1.5463: real time    1.5499


--------------------------------------------------------------------------------------------------------


     LOOP+:  cpu time   43.7215: real time   43.8296
    4ORBIT:  cpu time    0.0000: real time    0.0000

 total amount of memory used by VASP MPI-rank0   274697. kBytes
=======================================================================

   base      :      30000. kBytes
   nonlr-proj:       1237. kBytes
   fftplans  :      86584. kBytes
   grid      :     154542. kBytes
   one-center:         15. kBytes
   wavefun   :       2319. kBytes

  
  
 General timing and accounting informations for this job:
 ========================================================
  
                  Total CPU time used (sec):       45.235
                            User time (sec):       43.891
                          System time (sec):        1.344
                         Elapsed time (sec):       45.354
  
                   Maximum memory used (kb):      388784.
                   Average memory used (kb):           0.
  
                          Minor page faults:       189528
                          Major page faults:            0
                 Voluntary context switches:          146
