ITEM: TIMESTEP
1240
ITEM: NUMBER OF ATOMS
5
ITEM: BOX BOUNDS xy xz yz pp pp pp
0.0000000000000000e+00 1.0199101400000000e+01 1.3375010000000001e-01
-5.6475699999999997e-02 1.0057651500000000e+01 1.1504730000000001e-01
0.0000000000000000e+00 9.8131208999999995e+00 -5.6475699999999997e-02
ITEM: ATOMS id type x y z 
1 1 5.5217 4.39479 3.37888 
2 1 4.01306 4.58513 4.30599 
3 1 5.4386 5.70502 4.62761 
4 1 5.46826 3.99569 5.10942 
5 2 5.11504 4.69855 4.36667 
