ITEM: TIMESTEP
2440
ITEM: NUMBER OF ATOMS
5
ITEM: BOX BOUNDS xy xz yz pp pp pp
0.0000000000000000e+00 1.0199101400000000e+01 1.3375010000000001e-01
-5.6475699999999997e-02 1.0057651500000000e+01 1.1504730000000001e-01
0.0000000000000000e+00 9.8131208999999995e+00 -5.6475699999999997e-02
ITEM: ATOMS id type x y z 
1 1 5.62624 4.84364 3.35971 
2 1 4.1232 4.3341 4.11147 
3 1 5.12044 5.61618 5.01544 
4 1 5.62764 3.88007 4.90802 
5 2 5.11039 4.6991 4.36894 
