ITEM: TIMESTEP
2630
ITEM: NUMBER OF ATOMS
5
ITEM: BOX BOUNDS xy xz yz pp pp pp
0.0000000000000000e+00 1.0199101400000000e+01 1.3375010000000001e-01
-5.6475699999999997e-02 1.0057651500000000e+01 1.1504730000000001e-01
0.0000000000000000e+00 9.8131208999999995e+00 -5.6475699999999997e-02
ITEM: ATOMS id type x y z 
1 1 4.25003 4.27459 4.93241 
2 1 4.87342 5.087 3.33864 
3 1 5.88935 3.91534 4.22312 
4 1 5.57365 5.53639 4.92455 
5 2 5.10297 4.68749 4.36693 
