ITEM: TIMESTEP
300
ITEM: NUMBER OF ATOMS
5
ITEM: BOX BOUNDS xy xz yz pp pp pp
0.0000000000000000e+00 1.0199101400000000e+01 1.3375010000000001e-01
-5.6475699999999997e-02 1.0057651500000000e+01 1.1504730000000001e-01
0.0000000000000000e+00 9.8131208999999995e+00 -5.6475699999999997e-02
ITEM: ATOMS id type x y z 
1 1 5.34365 5.53444 3.72828 
2 1 4.35598 4.05978 3.96887 
3 1 4.70492 5.12648 5.28235 
4 1 6.02284 4.11839 4.55201 
5 2 5.11623 4.68534 4.35753 
