ITEM: TIMESTEP
400
ITEM: NUMBER OF ATOMS
5
ITEM: BOX BOUNDS xy xz yz pp pp pp
0.0000000000000000e+00 1.0199101400000000e+01 1.3375010000000001e-01
-5.6475699999999997e-02 1.0057651500000000e+01 1.1504730000000001e-01
0.0000000000000000e+00 9.8131208999999995e+00 -5.6475699999999997e-02
ITEM: ATOMS id type x y z 
1 1 5.52164 4.30458 3.45693 
2 1 4.05868 4.74636 4.23625 
3 1 5.48364 5.7245 4.5487 
4 1 5.38824 4.11875 5.24594 
5 2 5.11416 4.68075 4.36117 
