ITEM: TIMESTEP
830
ITEM: NUMBER OF ATOMS
5
ITEM: BOX BOUNDS xy xz yz pp pp pp
0.0000000000000000e+00 1.0199101400000000e+01 1.3375010000000001e-01
-5.6475699999999997e-02 1.0057651500000000e+01 1.1504730000000001e-01
0.0000000000000000e+00 9.8131208999999995e+00 -5.6475699999999997e-02
ITEM: ATOMS id type x y z 
1 1 5.42066 4.08648 3.46836 
2 1 4.08684 4.95888 4.26512 
3 1 5.61739 5.6555 4.3516 
4 1 5.30973 4.17397 5.31804 
5 2 5.11563 4.68236 4.36823 
