ITEM: TIMESTEP
1450
ITEM: NUMBER OF ATOMS
5
ITEM: BOX BOUNDS xy xz yz pp pp pp
-5.0242100000000001e-01 1.0256560300000000e+01 -2.4531780000000000e-01
-3.0129119999999998e-01 9.8128481000000001e+00 -2.5710319999999998e-01
0.0000000000000000e+00 9.8293467000000003e+00 -3.0129119999999998e-01
ITEM: ATOMS id type x y z 
1 1 4.82858 3.52436 3.82313 
2 1 4.51184 5.32209 3.79564 
3 1 5.95757 4.66177 4.57865 
4 1 4.32555 4.2984 5.21958 
5 2 4.92463 4.46747 4.37115 
