ITEM: TIMESTEP
2560
ITEM: NUMBER OF ATOMS
5
ITEM: BOX BOUNDS xy xz yz pp pp pp
-5.0242100000000001e-01 1.0256560300000000e+01 -2.4531780000000000e-01
-3.0129119999999998e-01 9.8128481000000001e+00 -2.5710319999999998e-01
0.0000000000000000e+00 9.8293467000000003e+00 -3.0129119999999998e-01
ITEM: ATOMS id type x y z 
1 1 4.29089 4.21814 3.52728 
2 1 5.94452 4.37157 4.06889 
3 1 4.66787 3.80591 5.21706 
4 1 4.60225 5.44267 4.71761 
5 2 4.93446 4.46484 4.36166 
