 vasp.5.4.4.18Apr17-6-g9f103f2a35 (build Jul 12 2018 13:43:46) complex           
 executed on             LinuxGNU date 2019.06.25  21:09:30
 running on    1 total cores
 distrk:  each k-point on    1 cores,    1 groups
 distr:  one band on NCORES_PER_BAND=   1 cores,    1 groups


--------------------------------------------------------------------------------------------------------


 INCAR:
 POTCAR:    PAW_PBE H 15Jun2001                   
 POTCAR:    PAW_PBE C 08Apr2002                   
 POTCAR:    PAW_PBE H 15Jun2001                   
   VRHFIN =H: ultrasoft test                                                    
   LEXCH  = PE                                                                  
   EATOM  =    12.4884 eV,    0.9179 Ry                                         
                                                                                
   TITEL  = PAW_PBE H 15Jun2001                                                 
   LULTRA =        F    use ultrasoft PP ?                                      
   IUNSCR =        0    unscreen: 0-lin 1-nonlin 2-no                           
   RPACOR =    0.000    partial core radius                                     
   POMASS =    1.000; ZVAL   =    1.000    mass and valenz                      
   RCORE  =    1.100    outmost cutoff radius                                   
   RWIGS  =    0.700; RWIGS  =    0.370    wigner-seitz radius (au A)           
   ENMAX  =  250.000; ENMIN  =  200.000 eV                                      
   RCLOC  =    0.701    cutoff for local pot                                    
   LCOR   =        T    correct aug charges                                     
   LPAW   =        T    paw PP                                                  
   EAUG   =  400.000                                                            
   RMAX   =    1.123    core radius for proj-oper                               
   RAUG   =    1.200    factor for augmentation sphere                          
   RDEP   =    1.112    radius for radial grids                                 
   RDEPT  =    0.926    core radius for aug-charge                              
                                                                                
   Atomic configuration                                                         
    2 entries                                                                   
     n  l   j            E        occ.                                          
     1  0  0.50        -6.4927   1.0000                                         
     2  1  0.50        -3.4015   0.0000                                         
   Description                                                                  
     l       E           TYP  RCUT    TYP  RCUT                                 
     0     -6.4927494     23  1.100                                             
     0      6.8029130     23  1.100                                             
     1     -4.0817478     23  1.100                                             
  local pseudopotential read in
  atomic valenz-charges read in
  non local Contribution for L=           0  read in
    real space projection operators read in
  non local Contribution for L=           0  read in
    real space projection operators read in
  non local Contribution for L=           1  read in
    real space projection operators read in
    PAW grid and wavefunctions read in

   number of l-projection  operators is LMAX  =           3
   number of lm-projection operators is LMMAX =           5

 POTCAR:    PAW_PBE C 08Apr2002                   
   VRHFIN =C: s2p2                                                              
   LEXCH  = PE                                                                  
   EATOM  =   147.1560 eV,   10.8157 Ry                                         
                                                                                
   TITEL  = PAW_PBE C 08Apr2002                                                 
   LULTRA =        F    use ultrasoft PP ?                                      
   IUNSCR =        1    unscreen: 0-lin 1-nonlin 2-no                           
   RPACOR =    1.200    partial core radius                                     
   POMASS =   12.011; ZVAL   =    4.000    mass and valenz                      
   RCORE  =    1.500    outmost cutoff radius                                   
   RWIGS  =    1.630; RWIGS  =    0.863    wigner-seitz radius (au A)           
   ENMAX  =  400.000; ENMIN  =  300.000 eV                                      
   ICORE  =        2    local potential                                         
   LCOR   =        T    correct aug charges                                     
   LPAW   =        T    paw PP                                                  
   EAUG   =  644.873                                                            
   DEXC   =    0.000                                                            
   RMAX   =    1.529    core radius for proj-oper                               
   RAUG   =    1.300    factor for augmentation sphere                          
   RDEP   =    1.501    radius for radial grids                                 
   RDEPT  =    1.300    core radius for aug-charge                              
                                                                                
   Atomic configuration                                                         
    4 entries                                                                   
     n  l   j            E        occ.                                          
     1  0  0.50      -273.3789   2.0000                                         
     2  0  0.50       -13.7508   2.0000                                         
     2  1  0.50        -5.2854   2.0000                                         
     3  2  1.50        -5.4423   0.0000                                         
   Description                                                                  
     l       E           TYP  RCUT    TYP  RCUT                                 
     0    -13.7508458     23  1.200                                             
     0     -8.2022199     23  1.200                                             
     1     -5.2854383     23  1.500                                             
     1     34.0145650     23  1.500                                             
     2     -5.4423304      7  1.500                                             
  local pseudopotential read in
  partial core-charges read in
  partial kinetic energy density read in
  atomic valenz-charges read in
  non local Contribution for L=           0  read in
    real space projection operators read in
  non local Contribution for L=           0  read in
    real space projection operators read in
  non local Contribution for L=           1  read in
    real space projection operators read in
  non local Contribution for L=           1  read in
    real space projection operators read in
    PAW grid and wavefunctions read in

   number of l-projection  operators is LMAX  =           4
   number of lm-projection operators is LMMAX =           8


 ----------------------------------------------------------------------------- 
|                                                                             |
|  ADVICE TO THIS USER RUNNING 'VASP/VAMP'   (HEAR YOUR MASTER'S VOICE ...):  |
|                                                                             |
|      You have a (more or less) 'small supercell' and for smaller cells      |
|      it is recommended  to use the reciprocal-space projection scheme!      |
|      The real space optimization is not  efficient for small cells and it   |
|      is also less accurate ...                                              |
|      Therefore set LREAL=.FALSE. in the  INCAR file                         |
|                                                                             |
 ----------------------------------------------------------------------------- 

 Optimization of the real space projectors (new method)

 maximal supplied QI-value         = 34.20
 optimisation between [QCUT,QGAM] = [  9.92, 20.18] = [ 27.55,114.04] Ry 
 Optimized for a Real-space Cutoff    1.34 Angstroem

   l    n(q)    QCUT    max X(q) W(low)/X(q) W(high)/X(q)  e(spline) 
   0      8     9.919    19.460    0.16E-03    0.20E-03    0.36E-06
   0      8     9.919    12.209    0.16E-03    0.20E-03    0.35E-06
   1      8     9.919     4.655    0.19E-03    0.46E-03    0.40E-06
 Optimization of the real space projectors (new method)

 maximal supplied QI-value         = 25.13
 optimisation between [QCUT,QGAM] = [ 10.05, 20.36] = [ 28.30,116.06] Ry 
 Optimized for a Real-space Cutoff    1.51 Angstroem

   l    n(q)    QCUT    max X(q) W(low)/X(q) W(high)/X(q)  e(spline) 
   0      9    10.053   115.676    0.19E-03    0.21E-03    0.38E-06
   0      9    10.053    87.132    0.19E-03    0.21E-03    0.38E-06
   1      9    10.053     4.429    0.87E-04    0.11E-03    0.39E-06
   1      9    10.053     2.733    0.59E-04    0.62E-04    0.43E-06
  PAW_PBE H 15Jun2001                   :
 energy of atom  1       EATOM=  -12.4884
 kinetic energy error for atom=    0.0098 (will be added to EATOM!!)
  PAW_PBE C 08Apr2002                   :
 energy of atom  2       EATOM= -147.1560
 kinetic energy error for atom=    0.0288 (will be added to EATOM!!)


 POSCAR: POSCAR file written by OVITO            
  positions in cartesian coordinates
  No initial velocities read in
 exchange correlation table for  LEXCH =        8
   RHO(1)=    0.500       N(1)  =     2000
   RHO(2)=  100.500       N(2)  =     4000



--------------------------------------------------------------------------------------------------------


 ion  position               nearest neighbor table
   1  0.537  0.495  0.342-   5 1.09
   2  0.406  0.503  0.462-   5 1.06
   3  0.574  0.505  0.519-   5 1.09
   4  0.501  0.355  0.455-   5 1.15
   5  0.502  0.470  0.445-   2 1.06   3 1.09   1 1.09   4 1.15


IMPORTANT INFORMATION: All symmetrisations will be switched off!
NOSYMM: (Re-)initialisation of all symmetry stuff for point group C_1.




Automatic generation of k-mesh.
 generate k-points for:    1    1    1
Space group operators:
 irot       det(A)        alpha          n_x          n_y          n_z        tau_x        tau_y        tau_z
    1     1.000000     0.000000     1.000000     0.000000     0.000000     0.000000     0.000000     0.000000
 
 Subroutine IBZKPT returns following result:
 ===========================================
 
 Found      1 irreducible k-points:
 
 Following reciprocal coordinates:
            Coordinates               Weight
  0.000000  0.000000  0.000000      1.000000
 
 Following cartesian coordinates:
            Coordinates               Weight
  0.000000  0.000000  0.000000      1.000000
 


--------------------------------------------------------------------------------------------------------




 Dimension of arrays:
   k-points           NKPTS =      1   k-points in BZ     NKDIM =      1   number of bands    NBANDS=      8
   number of dos      NEDOS =    301   number of ions     NIONS =      5
   non local maximal  LDIM  =      4   non local SUM 2l+1 LMDIM =      8
   total plane-waves  NPLWV = 286720
   max r-space proj   IRMAX =   4191   max aug-charges    IRDMAX=   3598
   dimension x,y,z NGX =    70 NGY =   64 NGZ =   64
   dimension x,y,z NGXF=   140 NGYF=  128 NGZF=  128
   support grid    NGXF=   140 NGYF=  128 NGZF=  128
   ions per type =               4   1
   NGX,Y,Z   is equivalent  to a cutoff of  11.33, 10.76, 10.84 a.u.
   NGXF,Y,Z  is equivalent  to a cutoff of  22.66, 21.52, 21.69 a.u.

 SYSTEM =  unknown system                          
 POSCAR =  POSCAR file written by OVITO            

 Startparameter for this run:
   NWRITE =      2    write-flag & timer
   PREC   = a         normal or accurate (medium, high low for compatibility)
   ISTART =      0    job   : 0-new  1-cont  2-samecut
   ICHARG =      2    charge: 1-file 2-atom 10-const
   ISPIN  =      1    spin polarized calculation?
   LNONCOLLINEAR =      F non collinear calculations
   LSORBIT =      F    spin-orbit coupling
   INIWAV =      1    electr: 0-lowe 1-rand  2-diag
   LASPH  =      F    aspherical Exc in radial PAW
   METAGGA=      F    non-selfconsistent MetaGGA calc.

 Electronic Relaxation 1
   ENCUT  =  400.0 eV  29.40 Ry    5.42 a.u.  16.75 16.12 16.00*2*pi/ulx,y,z
   ENINI  =  400.0     initial cutoff
   ENAUG  =  644.9 eV  augmentation charge cutoff
   NELM   =    120;   NELMIN=  4; NELMDL= -5     # of ELM steps 
   EDIFF  = 0.1E-05   stopping-criterion for ELM
   LREAL  =      T    real-space projection
   NLSPLINE    = F    spline interpolate recip. space projectors
   LCOMPAT=      F    compatible to vasp.4.4
   GGA_COMPAT  = T    GGA compatible to vasp.4.4-vasp.4.6
   LMAXPAW     = -100 max onsite density
   LMAXMIX     =    2 max onsite mixed and CHGCAR
   VOSKOWN=      0    Vosko Wilk Nusair interpolation
   ROPT   =   -0.00025  -0.00025
 Ionic relaxation
   EDIFFG = 0.1E-04   stopping-criterion for IOM
   NSW    =      0    number of steps for IOM
   NBLOCK =      1;   KBLOCK =      1    inner block; outer block 
   IBRION =     -1    ionic relax: 0-MD 1-quasi-New 2-CG
   NFREE  =      0    steps in history (QN), initial steepest desc. (CG)
   ISIF   =      2    stress and relaxation
   IWAVPR =     10    prediction:  0-non 1-charg 2-wave 3-comb
   ISYM   =      0    0-nonsym 1-usesym 2-fastsym
   LCORR  =      T    Harris-Foulkes like correction to forces

   POTIM  = 0.5000    time-step for ionic-motion
   TEIN   =    0.0    initial temperature
   TEBEG  =    0.0;   TEEND  =   0.0 temperature during run
   SMASS  =  -3.00    Nose mass-parameter (am)
   estimated Nose-frequenzy (Omega)   =  0.10E-29 period in steps =****** mass=  -0.241E-26a.u.
   SCALEE = 1.0000    scale energy and forces
   NPACO  =    256;   APACO  = 16.0  distance and # of slots for P.C.
   PSTRESS=    0.0 pullay stress

  Mass of Ions in am
   POMASS =   1.00 12.01
  Ionic Valenz
   ZVAL   =   1.00  4.00
  Atomic Wigner-Seitz radii
   RWIGS  =  -1.00 -1.00
  virtual crystal weights 
   VCA    =   1.00  1.00
   NELECT =       8.0000    total number of electrons
   NUPDOWN=      -1.0000    fix difference up-down

 DOS related values:
   EMIN   =  10.00;   EMAX   =-10.00  energy-range for DOS
   EFERMI =   0.00
   ISMEAR =     0;   SIGMA  =   0.05  broadening in eV -4-tet -1-fermi 0-gaus

 Electronic relaxation 2 (details)
   IALGO  =     38    algorithm
   LDIAG  =      T    sub-space diagonalisation (order eigenvalues)
   LSUBROT=      F    optimize rotation matrix (better conditioning)
   TURBO    =      0    0=normal 1=particle mesh
   IRESTART =      0    0=no restart 2=restart with 2 vectors
   NREBOOT  =      0    no. of reboots
   NMIN     =      0    reboot dimension
   EREF     =   0.00    reference energy to select bands
   IMIX   =      4    mixing-type and parameters
     AMIX     =   0.40;   BMIX     =  1.00
     AMIX_MAG =   1.60;   BMIX_MAG =  1.00
     AMIN     =   0.10
     WC   =   100.;   INIMIX=   1;  MIXPRE=   1;  MAXMIX= -45

 Intra band minimization:
   WEIMIN = 0.0000     energy-eigenvalue tresh-hold
   EBREAK =  0.31E-07  absolut break condition
   DEPER  =   0.30     relativ break condition  

   TIME   =   0.40     timestep for ELM

  volume/ion in A,a.u.               =     199.12      1343.74
  Fermi-wavevector in a.u.,A,eV,Ry     =   0.327900  0.619642  1.462881  0.107519
  Thomas-Fermi vector in A             =   1.221026

 Write flags
   LWAVE        =      F    write WAVECAR
   LDOWNSAMPLE  =      F    k-point downsampling of WAVECAR
   LCHARG       =      F    write CHGCAR
   LVTOT        =      F    write LOCPOT, total local potential
   LVHAR        =      F    write LOCPOT, Hartree potential only
   LELF         =      F    write electronic localiz. function (ELF)
   LORBIT       =      0    0 simple, 1 ext, 2 COOP (PROOUT), +10 PAW based schemes


 Dipole corrections
   LMONO  =      F    monopole corrections only (constant potential shift)
   LDIPOL =      F    correct potential (dipole corrections)
   IDIPOL =      0    1-x, 2-y, 3-z, 4-all directions 
   EPSILON=  1.0000000 bulk dielectric constant

 Exchange correlation treatment:
   GGA     =    --    GGA type
   LEXCH   =     8    internal setting for exchange type
   VOSKOWN=      0    Vosko Wilk Nusair interpolation
   LHFCALC =     F    Hartree Fock is set to
   LHFONE  =     F    Hartree Fock one center treatment
   AEXX    =    0.0000 exact exchange contribution

 Linear response parameters
   LEPSILON=     F    determine dielectric tensor
   LRPA    =     F    only Hartree local field effects (RPA)
   LNABLA  =     F    use nabla operator in PAW spheres
   LVEL    =     F    velocity operator in full k-point grid
   LINTERFAST=   F  fast interpolation
   KINTER  =     0    interpolate to denser k-point grid
   CSHIFT  =0.1000    complex shift for real part using Kramers Kronig
   OMEGAMAX=  -1.0    maximum frequency
   DEG_THRESHOLD= 0.2000000E-02 threshold for treating states as degnerate
   RTIME   =   -0.100 relaxation time in fs
  (WPLASMAI=    0.000 imaginary part of plasma frequency in eV, 0.658/RTIME)
   DFIELD  = 0.0000000 0.0000000 0.0000000 field for delta impulse in time

 Orbital magnetization related:
   ORBITALMAG=     F  switch on orbital magnetization
   LCHIMAG   =     F  perturbation theory with respect to B field
   DQ        =  0.001000  dq finite difference perturbation B field
   LLRAUG    =     F  two centre corrections for induced B field



--------------------------------------------------------------------------------------------------------


 Static calculation
 charge density and potential will be updated during run
 non-spin polarized calculation
 Variant of blocked Davidson
 Davidson routine will perform the subspace rotation
 perform sub-space diagonalisation
    after iterative eigenvector-optimisation
 modified Broyden-mixing scheme, WC =      100.0
 initial mixing is a Kerker type mixing with AMIX =  0.4000 and BMIX =      1.0000
 Hartree-type preconditioning will be used
 using additional bands            4
 real space projection scheme for non local part
 use partial core corrections
 calculate Harris-corrections to forces   (improved forces if not selfconsistent)
 use gradient corrections 
 use of overlap-Matrix (Vanderbilt PP)
 Gauss-broadening in eV      SIGMA  =   0.05


--------------------------------------------------------------------------------------------------------


  energy-cutoff  :      400.00
  volume of cell :      995.61
      direct lattice vectors                 reciprocal lattice vectors
    10.269575100  0.000000000  0.000000000     0.097375012  0.002518995 -0.001083585
    -0.255660000  9.882867800  0.000000000    -0.000000000  0.101185205  0.001526796
     0.112990400 -0.148018900  9.809640900     0.000000000 -0.000000000  0.101940531

  length of vectors
    10.269575100  9.886174082  9.811408207     0.097413615  0.101196723  0.101940531



 k-points in units of 2pi/SCALE and weight: read from INCAR                         
   0.00000000  0.00000000  0.00000000       1.000

 k-points in reciprocal lattice and weights: read from INCAR                         
   0.00000000  0.00000000  0.00000000       1.000

 position of ions in fractional coordinates (direct lattice) 
   0.53658664  0.49538096  0.34235199
   0.40617974  0.50333092  0.46232581
   0.57385589  0.50475372  0.51915050
   0.50093561  0.35468192  0.45483827
   0.50204243  0.46998608  0.44467480

 position of ions in cartesian coordinates  (Angst):
   5.42255020  4.84511000  3.35835010
   4.09485010  4.90592000  4.53525020
   5.82286980  4.91157020  5.09268000
   5.10511020  3.43794990  4.46180010
   5.08584980  4.57899000  4.36210010



--------------------------------------------------------------------------------------------------------


 k-point  1 :   0.0000 0.0000 0.0000  plane waves:   18045

 maximum and minimum number of plane-waves per node :     18045    18045

 maximum number of plane-waves:     18045
 maximum index in each direction: 
   IXMAX=   16   IYMAX=   16   IZMAX=   15
   IXMIN=  -16   IYMIN=  -16   IZMIN=  -15


 serial   3D FFT for wavefunctions
 parallel 3D FFT for charge:
    minimum data exchange during FFTs selected (reduces bandwidth)


 total amount of memory used by VASP MPI-rank0   254155. kBytes
=======================================================================

   base      :      30000. kBytes
   nonlr-proj:       1131. kBytes
   fftplans  :      79272. kBytes
   grid      :     141424. kBytes
   one-center:         15. kBytes
   wavefun   :       2313. kBytes

     INWAV:  cpu time    0.0000: real time    0.0000
 Broyden mixing: mesh for mixing (old mesh)
   NGX = 33   NGY = 33   NGZ = 31
  (NGX  =140   NGY  =128   NGZ  =128)
  gives a total of  33759 points

 initial charge density was supplied:
 charge density of overlapping atoms calculated
 number of electron       8.0000000 magnetization 
 keeping initial charge density in first step


--------------------------------------------------------------------------------------------------------


 Maximum index for non-local projection operator         4018
 Maximum index for augmentation-charges         3287 (set IRDMAX)


--------------------------------------------------------------------------------------------------------


 First call to EWALD:  gamma=   0.178
 Maximum number of real-space cells 3x 3x 3
 Maximum number of reciprocal cells 3x 3x 3

    FEWALD:  cpu time    0.0007: real time    0.0007


--------------------------------------- Iteration      1(   1)  ---------------------------------------


    POTLOK:  cpu time    1.3988: real time    1.4022
    SETDIJ:  cpu time    0.0065: real time    0.0065
     EDDAV:  cpu time    0.3639: real time    0.3647
       DOS:  cpu time    0.0001: real time    0.0001
    --------------------------------------------
      LOOP:  cpu time    1.7693: real time    1.7736

 eigenvalue-minimisations  :    16
 total energy-change (2. order) : 0.6153816E+02  (-0.1762155E+03)
 number of electron       8.0000000 magnetization 
 augmentation part        8.0000000 magnetization 

 Free energy of the ion-electron system (eV)
  ---------------------------------------------------
  alpha Z        PSCENC =         0.24331934
  Ewald energy   TEWEN  =       128.98720828
  -Hartree energ DENC   =      -244.01636595
  -exchange      EXHF   =         0.00000000
  -V(xc)+E(xc)   XCENC  =        22.01715870
  PAW double counting   =       117.05815612     -117.66307307
  entropy T*S    EENTRO =        -0.00000000
  eigenvalues    EBANDS =       -42.12999773
  atomic energy  EATOM  =       197.04175453
  Solvation  Ediel_sol  =         0.00000000
  ---------------------------------------------------
  free energy    TOTEN  =        61.53816023 eV

  energy without entropy =       61.53816023  energy(sigma->0) =       61.53816023


--------------------------------------------------------------------------------------------------------




--------------------------------------- Iteration      1(   2)  ---------------------------------------


     EDDAV:  cpu time    0.5069: real time    0.5083
       DOS:  cpu time    0.0001: real time    0.0001
    --------------------------------------------
      LOOP:  cpu time    0.5070: real time    0.5084

 eigenvalue-minimisations  :    24
 total energy-change (2. order) :-0.7098764E+02  (-0.7098764E+02)
 number of electron       8.0000000 magnetization 
 augmentation part        8.0000000 magnetization 

 Free energy of the ion-electron system (eV)
  ---------------------------------------------------
  alpha Z        PSCENC =         0.24331934
  Ewald energy   TEWEN  =       128.98720828
  -Hartree energ DENC   =      -244.01636595
  -exchange      EXHF   =         0.00000000
  -V(xc)+E(xc)   XCENC  =        22.01715870
  PAW double counting   =       117.05815612     -117.66307307
  entropy T*S    EENTRO =        -0.00000000
  eigenvalues    EBANDS =      -113.11764090
  atomic energy  EATOM  =       197.04175453
  Solvation  Ediel_sol  =         0.00000000
  ---------------------------------------------------
  free energy    TOTEN  =        -9.44948294 eV

  energy without entropy =       -9.44948294  energy(sigma->0) =       -9.44948294


--------------------------------------------------------------------------------------------------------




--------------------------------------- Iteration      1(   3)  ---------------------------------------


     EDDAV:  cpu time    0.3523: real time    0.3531
       DOS:  cpu time    0.0001: real time    0.0001
    --------------------------------------------
      LOOP:  cpu time    0.3524: real time    0.3532

 eigenvalue-minimisations  :    16
 total energy-change (2. order) :-0.1706633E+02  (-0.1706633E+02)
 number of electron       8.0000000 magnetization 
 augmentation part        8.0000000 magnetization 

 Free energy of the ion-electron system (eV)
  ---------------------------------------------------
  alpha Z        PSCENC =         0.24331934
  Ewald energy   TEWEN  =       128.98720828
  -Hartree energ DENC   =      -244.01636595
  -exchange      EXHF   =         0.00000000
  -V(xc)+E(xc)   XCENC  =        22.01715870
  PAW double counting   =       117.05815612     -117.66307307
  entropy T*S    EENTRO =        -0.00000000
  eigenvalues    EBANDS =      -130.18396959
  atomic energy  EATOM  =       197.04175453
  Solvation  Ediel_sol  =         0.00000000
  ---------------------------------------------------
  free energy    TOTEN  =       -26.51581163 eV

  energy without entropy =      -26.51581163  energy(sigma->0) =      -26.51581163


--------------------------------------------------------------------------------------------------------




--------------------------------------- Iteration      1(   4)  ---------------------------------------


     EDDAV:  cpu time    0.6701: real time    0.6717
       DOS:  cpu time    0.0001: real time    0.0001
    --------------------------------------------
      LOOP:  cpu time    0.6702: real time    0.6718

 eigenvalue-minimisations  :    32
 total energy-change (2. order) :-0.9778384E+00  (-0.9778384E+00)
 number of electron       8.0000000 magnetization 
 augmentation part        8.0000000 magnetization 

 Free energy of the ion-electron system (eV)
  ---------------------------------------------------
  alpha Z        PSCENC =         0.24331934
  Ewald energy   TEWEN  =       128.98720828
  -Hartree energ DENC   =      -244.01636595
  -exchange      EXHF   =         0.00000000
  -V(xc)+E(xc)   XCENC  =        22.01715870
  PAW double counting   =       117.05815612     -117.66307307
  entropy T*S    EENTRO =        -0.00000000
  eigenvalues    EBANDS =      -131.16180800
  atomic energy  EATOM  =       197.04175453
  Solvation  Ediel_sol  =         0.00000000
  ---------------------------------------------------
  free energy    TOTEN  =       -27.49365004 eV

  energy without entropy =      -27.49365004  energy(sigma->0) =      -27.49365004


--------------------------------------------------------------------------------------------------------




--------------------------------------- Iteration      1(   5)  ---------------------------------------


     EDDAV:  cpu time    0.6680: real time    0.6696
       DOS:  cpu time    0.0001: real time    0.0001
    CHARGE:  cpu time    0.0786: real time    0.0788
    MIXING:  cpu time    0.0298: real time    0.0299
    --------------------------------------------
      LOOP:  cpu time    0.7766: real time    0.7784

 eigenvalue-minimisations  :    32
 total energy-change (2. order) :-0.5632382E-03  (-0.5632382E-03)
 number of electron       8.0000005 magnetization 
 augmentation part        0.2259729 magnetization 

 Broyden mixing:
  rms(total) = 0.87641E+00    rms(broyden)= 0.87617E+00
  rms(prec ) = 0.12328E+01
  weight for this iteration     100.00

 Free energy of the ion-electron system (eV)
  ---------------------------------------------------
  alpha Z        PSCENC =         0.24331934
  Ewald energy   TEWEN  =       128.98720828
  -Hartree energ DENC   =      -244.01636595
  -exchange      EXHF   =         0.00000000
  -V(xc)+E(xc)   XCENC  =        22.01715870
  PAW double counting   =       117.05815612     -117.66307307
  entropy T*S    EENTRO =        -0.00000000
  eigenvalues    EBANDS =      -131.16237124
  atomic energy  EATOM  =       197.04175453
  Solvation  Ediel_sol  =         0.00000000
  ---------------------------------------------------
  free energy    TOTEN  =       -27.49421327 eV

  energy without entropy =      -27.49421327  energy(sigma->0) =      -27.49421327


--------------------------------------------------------------------------------------------------------




--------------------------------------- Iteration      1(   6)  ---------------------------------------


    POTLOK:  cpu time    1.4249: real time    1.4283
    SETDIJ:  cpu time    0.0064: real time    0.0064
     EDDAV:  cpu time    0.5196: real time    0.5208
       DOS:  cpu time    0.0001: real time    0.0001
    CHARGE:  cpu time    0.0772: real time    0.0774
    MIXING:  cpu time    0.0315: real time    0.0316
    --------------------------------------------
      LOOP:  cpu time    2.0597: real time    2.0646

 eigenvalue-minimisations  :    24
 total energy-change (2. order) : 0.2908329E+01  (-0.8923672E+00)
 number of electron       8.0000006 magnetization 
 augmentation part        0.1976972 magnetization 

 Broyden mixing:
  rms(total) = 0.44711E+00    rms(broyden)= 0.44699E+00
  rms(prec ) = 0.55850E+00
  weight for this iteration     100.00

 eigenvalues of (default mixing * dielectric matrix)
  average eigenvalue GAMMA=   1.1997
  1.1997

 Free energy of the ion-electron system (eV)
  ---------------------------------------------------
  alpha Z        PSCENC =         0.24331934
  Ewald energy   TEWEN  =       128.98720828
  -Hartree energ DENC   =      -263.81949803
  -exchange      EXHF   =         0.00000000
  -V(xc)+E(xc)   XCENC  =        23.21916028
  PAW double counting   =       239.28261063     -240.06366915
  entropy T*S    EENTRO =        -0.00000000
  eigenvalues    EBANDS =      -109.47677036
  atomic energy  EATOM  =       197.04175453
  Solvation  Ediel_sol  =         0.00000000
  ---------------------------------------------------
  free energy    TOTEN  =       -24.58588447 eV

  energy without entropy =      -24.58588447  energy(sigma->0) =      -24.58588447


--------------------------------------------------------------------------------------------------------




--------------------------------------- Iteration      1(   7)  ---------------------------------------


    POTLOK:  cpu time    1.4377: real time    1.4411
    SETDIJ:  cpu time    0.0065: real time    0.0065
     EDDAV:  cpu time    0.5199: real time    0.5212
       DOS:  cpu time    0.0001: real time    0.0001
    CHARGE:  cpu time    0.0752: real time    0.0753
    MIXING:  cpu time    0.0322: real time    0.0323
    --------------------------------------------
      LOOP:  cpu time    2.0716: real time    2.0765

 eigenvalue-minimisations  :    24
 total energy-change (2. order) : 0.4825357E+00  (-0.7368748E-01)
 number of electron       8.0000006 magnetization 
 augmentation part        0.1892552 magnetization 

 Broyden mixing:
  rms(total) = 0.22755E+00    rms(broyden)= 0.22751E+00
  rms(prec ) = 0.27891E+00
  weight for this iteration     100.00

 eigenvalues of (default mixing * dielectric matrix)
  average eigenvalue GAMMA=   1.6956
  1.2510  2.1402

 Free energy of the ion-electron system (eV)
  ---------------------------------------------------
  alpha Z        PSCENC =         0.24331934
  Ewald energy   TEWEN  =       128.98720828
  -Hartree energ DENC   =      -273.89756297
  -exchange      EXHF   =         0.00000000
  -V(xc)+E(xc)   XCENC  =        23.97783034
  PAW double counting   =       367.63751452     -368.44682568
  entropy T*S    EENTRO =        -0.00000000
  eigenvalues    EBANDS =       -99.64658713
  atomic energy  EATOM  =       197.04175453
  Solvation  Ediel_sol  =         0.00000000
  ---------------------------------------------------
  free energy    TOTEN  =       -24.10334876 eV

  energy without entropy =      -24.10334876  energy(sigma->0) =      -24.10334876


--------------------------------------------------------------------------------------------------------




--------------------------------------- Iteration      1(   8)  ---------------------------------------


    POTLOK:  cpu time    1.4427: real time    1.4461
    SETDIJ:  cpu time    0.0064: real time    0.0064
     EDDAV:  cpu time    0.6754: real time    0.6770
       DOS:  cpu time    0.0001: real time    0.0001
    CHARGE:  cpu time    0.0752: real time    0.0754
    MIXING:  cpu time    0.0323: real time    0.0324
    --------------------------------------------
      LOOP:  cpu time    2.2320: real time    2.2373

 eigenvalue-minimisations  :    32
 total energy-change (2. order) : 0.1640752E+00  (-0.1713855E-01)
 number of electron       8.0000005 magnetization 
 augmentation part        0.1866085 magnetization 

 Broyden mixing:
  rms(total) = 0.26977E-01    rms(broyden)= 0.26949E-01
  rms(prec ) = 0.55096E-01
  weight for this iteration     100.00

 eigenvalues of (default mixing * dielectric matrix)
  average eigenvalue GAMMA=   1.5737
  2.1637  1.1293  1.4282

 Free energy of the ion-electron system (eV)
  ---------------------------------------------------
  alpha Z        PSCENC =         0.24331934
  Ewald energy   TEWEN  =       128.98720828
  -Hartree energ DENC   =      -280.90099475
  -exchange      EXHF   =         0.00000000
  -V(xc)+E(xc)   XCENC  =        24.60229765
  PAW double counting   =       481.45526380     -482.25079245
  entropy T*S    EENTRO =        -0.00000000
  eigenvalues    EBANDS =       -93.11732994
  atomic energy  EATOM  =       197.04175453
  Solvation  Ediel_sol  =         0.00000000
  ---------------------------------------------------
  free energy    TOTEN  =       -23.93927355 eV

  energy without entropy =      -23.93927355  energy(sigma->0) =      -23.93927355


--------------------------------------------------------------------------------------------------------




--------------------------------------- Iteration      1(   9)  ---------------------------------------


    POTLOK:  cpu time    1.4503: real time    1.4537
    SETDIJ:  cpu time    0.0065: real time    0.0065
     EDDAV:  cpu time    0.6799: real time    0.6816
       DOS:  cpu time    0.0001: real time    0.0001
    CHARGE:  cpu time    0.0734: real time    0.0736
    MIXING:  cpu time    0.0327: real time    0.0328
    --------------------------------------------
      LOOP:  cpu time    2.2429: real time    2.2483

 eigenvalue-minimisations  :    32
 total energy-change (2. order) : 0.7449645E-02  (-0.3406199E-03)
 number of electron       8.0000005 magnetization 
 augmentation part        0.1860936 magnetization 

 Broyden mixing:
  rms(total) = 0.15877E-01    rms(broyden)= 0.15873E-01
  rms(prec ) = 0.35531E-01
  weight for this iteration     100.00

 eigenvalues of (default mixing * dielectric matrix)
  average eigenvalue GAMMA=   1.9006
  2.9705  2.4381  0.9864  1.2072

 Free energy of the ion-electron system (eV)
  ---------------------------------------------------
  alpha Z        PSCENC =         0.24331934
  Ewald energy   TEWEN  =       128.98720828
  -Hartree energ DENC   =      -282.32055161
  -exchange      EXHF   =         0.00000000
  -V(xc)+E(xc)   XCENC  =        24.68111228
  PAW double counting   =       479.56970842     -480.36223418
  entropy T*S    EENTRO =        -0.00000000
  eigenvalues    EBANDS =       -91.77214096
  atomic energy  EATOM  =       197.04175453
  Solvation  Ediel_sol  =         0.00000000
  ---------------------------------------------------
  free energy    TOTEN  =       -23.93182390 eV

  energy without entropy =      -23.93182390  energy(sigma->0) =      -23.93182390


--------------------------------------------------------------------------------------------------------




--------------------------------------- Iteration      1(  10)  ---------------------------------------


    POTLOK:  cpu time    1.3703: real time    1.3736
    SETDIJ:  cpu time    0.0064: real time    0.0064
     EDDAV:  cpu time    0.3811: real time    0.3820
       DOS:  cpu time    0.0001: real time    0.0001
    CHARGE:  cpu time    0.0768: real time    0.0770
    MIXING:  cpu time    0.0336: real time    0.0337
    --------------------------------------------
      LOOP:  cpu time    1.8683: real time    1.8727

 eigenvalue-minimisations  :    16
 total energy-change (2. order) : 0.8647537E-02  (-0.5471818E-03)
 number of electron       8.0000005 magnetization 
 augmentation part        0.1858925 magnetization 

 Broyden mixing:
  rms(total) = 0.68824E-02    rms(broyden)= 0.68809E-02
  rms(prec ) = 0.16156E-01
  weight for this iteration     100.00

 eigenvalues of (default mixing * dielectric matrix)
  average eigenvalue GAMMA=   2.1451
  1.2076  0.9959  3.3977  2.5621  2.5621

 Free energy of the ion-electron system (eV)
  ---------------------------------------------------
  alpha Z        PSCENC =         0.24331934
  Ewald energy   TEWEN  =       128.98720828
  -Hartree energ DENC   =      -283.90919919
  -exchange      EXHF   =         0.00000000
  -V(xc)+E(xc)   XCENC  =        24.75111906
  PAW double counting   =       469.81293219     -470.60129779
  entropy T*S    EENTRO =        -0.00000000
  eigenvalues    EBANDS =       -90.24901279
  atomic energy  EATOM  =       197.04175453
  Solvation  Ediel_sol  =         0.00000000
  ---------------------------------------------------
  free energy    TOTEN  =       -23.92317637 eV

  energy without entropy =      -23.92317637  energy(sigma->0) =      -23.92317637


--------------------------------------------------------------------------------------------------------




--------------------------------------- Iteration      1(  11)  ---------------------------------------


    POTLOK:  cpu time    1.2485: real time    1.2515
    SETDIJ:  cpu time    0.0065: real time    0.0065
     EDDAV:  cpu time    0.5353: real time    0.5365
       DOS:  cpu time    0.0001: real time    0.0001
    CHARGE:  cpu time    0.0794: real time    0.0796
    MIXING:  cpu time    0.0354: real time    0.0355
    --------------------------------------------
      LOOP:  cpu time    1.9052: real time    1.9097

 eigenvalue-minimisations  :    24
 total energy-change (2. order) :-0.9451686E-02  (-0.4913251E-03)
 number of electron       8.0000005 magnetization 
 augmentation part        0.1853509 magnetization 

 Broyden mixing:
  rms(total) = 0.73859E-02    rms(broyden)= 0.73850E-02
  rms(prec ) = 0.11458E-01
  weight for this iteration     100.00

 eigenvalues of (default mixing * dielectric matrix)
  average eigenvalue GAMMA=   2.1520
  4.6680  2.8617  2.3131  1.2260  0.9693  0.8740

 Free energy of the ion-electron system (eV)
  ---------------------------------------------------
  alpha Z        PSCENC =         0.24331934
  Ewald energy   TEWEN  =       128.98720828
  -Hartree energ DENC   =      -284.98263189
  -exchange      EXHF   =         0.00000000
  -V(xc)+E(xc)   XCENC  =        24.79203938
  PAW double counting   =       473.89862269     -474.68943095
  entropy T*S    EENTRO =        -0.00000000
  eigenvalues    EBANDS =       -89.22350944
  atomic energy  EATOM  =       197.04175453
  Solvation  Ediel_sol  =         0.00000000
  ---------------------------------------------------
  free energy    TOTEN  =       -23.93262805 eV

  energy without entropy =      -23.93262805  energy(sigma->0) =      -23.93262805


--------------------------------------------------------------------------------------------------------




--------------------------------------- Iteration      1(  12)  ---------------------------------------


    POTLOK:  cpu time    1.2459: real time    1.2488
    SETDIJ:  cpu time    0.0063: real time    0.0064
     EDDAV:  cpu time    0.5168: real time    0.5180
       DOS:  cpu time    0.0001: real time    0.0001
    CHARGE:  cpu time    0.0749: real time    0.0751
    MIXING:  cpu time    0.0347: real time    0.0348
    --------------------------------------------
      LOOP:  cpu time    1.8786: real time    1.8831

 eigenvalue-minimisations  :    24
 total energy-change (2. order) :-0.1732018E-02  (-0.6821504E-04)
 number of electron       8.0000005 magnetization 
 augmentation part        0.1855996 magnetization 

 Broyden mixing:
  rms(total) = 0.23035E-02    rms(broyden)= 0.23033E-02
  rms(prec ) = 0.51003E-02
  weight for this iteration     100.00

 eigenvalues of (default mixing * dielectric matrix)
  average eigenvalue GAMMA=   2.3336
  5.0983  3.2934  2.6487  2.0568  1.2391  0.9995  0.9995

 Free energy of the ion-electron system (eV)
  ---------------------------------------------------
  alpha Z        PSCENC =         0.24331934
  Ewald energy   TEWEN  =       128.98720828
  -Hartree energ DENC   =      -284.65314971
  -exchange      EXHF   =         0.00000000
  -V(xc)+E(xc)   XCENC  =        24.76491256
  PAW double counting   =       470.31446786     -471.10427273
  entropy T*S    EENTRO =        -0.00000000
  eigenvalues    EBANDS =       -89.52860020
  atomic energy  EATOM  =       197.04175453
  Solvation  Ediel_sol  =         0.00000000
  ---------------------------------------------------
  free energy    TOTEN  =       -23.93436007 eV

  energy without entropy =      -23.93436007  energy(sigma->0) =      -23.93436007


--------------------------------------------------------------------------------------------------------




--------------------------------------- Iteration      1(  13)  ---------------------------------------


    POTLOK:  cpu time    1.2259: real time    1.2288
    SETDIJ:  cpu time    0.0063: real time    0.0064
     EDDAV:  cpu time    0.3720: real time    0.3729
       DOS:  cpu time    0.0001: real time    0.0001
    CHARGE:  cpu time    0.0746: real time    0.0748
    MIXING:  cpu time    0.0362: real time    0.0363
    --------------------------------------------
      LOOP:  cpu time    1.7152: real time    1.7193

 eigenvalue-minimisations  :    16
 total energy-change (2. order) :-0.4366441E-02  (-0.1179353E-03)
 number of electron       8.0000005 magnetization 
 augmentation part        0.1856661 magnetization 

 Broyden mixing:
  rms(total) = 0.23891E-02    rms(broyden)= 0.23886E-02
  rms(prec ) = 0.31884E-02
  weight for this iteration     100.00

 eigenvalues of (default mixing * dielectric matrix)
  average eigenvalue GAMMA=   2.3792
  6.0364  3.7917  2.5999  2.3059  1.2687  1.0415  1.0415  0.9483

 Free energy of the ion-electron system (eV)
  ---------------------------------------------------
  alpha Z        PSCENC =         0.24331934
  Ewald energy   TEWEN  =       128.98720828
  -Hartree energ DENC   =      -284.59359878
  -exchange      EXHF   =         0.00000000
  -V(xc)+E(xc)   XCENC  =        24.75633938
  PAW double counting   =       471.34397911     -472.13251390
  entropy T*S    EENTRO =        -0.00000000
  eigenvalues    EBANDS =       -89.58521448
  atomic energy  EATOM  =       197.04175453
  Solvation  Ediel_sol  =         0.00000000
  ---------------------------------------------------
  free energy    TOTEN  =       -23.93872651 eV

  energy without entropy =      -23.93872651  energy(sigma->0) =      -23.93872651


--------------------------------------------------------------------------------------------------------




--------------------------------------- Iteration      1(  14)  ---------------------------------------


    POTLOK:  cpu time    1.2176: real time    1.2205
    SETDIJ:  cpu time    0.0064: real time    0.0064
     EDDAV:  cpu time    0.6852: real time    0.6868
       DOS:  cpu time    0.0001: real time    0.0001
    CHARGE:  cpu time    0.0725: real time    0.0726
    MIXING:  cpu time    0.0363: real time    0.0364
    --------------------------------------------
      LOOP:  cpu time    2.0180: real time    2.0228

 eigenvalue-minimisations  :    32
 total energy-change (2. order) :-0.4990200E-03  (-0.8446801E-05)
 number of electron       8.0000005 magnetization 
 augmentation part        0.1856213 magnetization 

 Broyden mixing:
  rms(total) = 0.77691E-03    rms(broyden)= 0.77679E-03
  rms(prec ) = 0.13355E-02
  weight for this iteration     100.00

 eigenvalues of (default mixing * dielectric matrix)
  average eigenvalue GAMMA=   2.5095
  6.8849  4.2377  2.7223  2.4348  1.9687  1.2775  1.0073  1.0073  1.0453

 Free energy of the ion-electron system (eV)
  ---------------------------------------------------
  alpha Z        PSCENC =         0.24331934
  Ewald energy   TEWEN  =       128.98720828
  -Hartree energ DENC   =      -284.58625168
  -exchange      EXHF   =         0.00000000
  -V(xc)+E(xc)   XCENC  =        24.75278250
  PAW double counting   =       470.24558773     -471.03464758
  entropy T*S    EENTRO =        -0.00000000
  eigenvalues    EBANDS =       -89.58897866
  atomic energy  EATOM  =       197.04175453
  Solvation  Ediel_sol  =         0.00000000
  ---------------------------------------------------
  free energy    TOTEN  =       -23.93922553 eV

  energy without entropy =      -23.93922553  energy(sigma->0) =      -23.93922553


--------------------------------------------------------------------------------------------------------




--------------------------------------- Iteration      1(  15)  ---------------------------------------


    POTLOK:  cpu time    1.2172: real time    1.2201
    SETDIJ:  cpu time    0.0064: real time    0.0064
     EDDAV:  cpu time    0.3827: real time    0.3836
       DOS:  cpu time    0.0001: real time    0.0001
    CHARGE:  cpu time    0.0769: real time    0.0771
    MIXING:  cpu time    0.0370: real time    0.0371
    --------------------------------------------
      LOOP:  cpu time    1.7203: real time    1.7243

 eigenvalue-minimisations  :    16
 total energy-change (2. order) :-0.3387300E-03  (-0.1792741E-05)
 number of electron       8.0000005 magnetization 
 augmentation part        0.1856255 magnetization 

 Broyden mixing:
  rms(total) = 0.46930E-03    rms(broyden)= 0.46929E-03
  rms(prec ) = 0.67574E-03
  weight for this iteration     100.00

 eigenvalues of (default mixing * dielectric matrix)
  average eigenvalue GAMMA=   2.5795
  7.5854  4.7858  3.0436  2.5592  2.2605  1.2478  1.2478  1.0231  1.0231  1.0191

 Free energy of the ion-electron system (eV)
  ---------------------------------------------------
  alpha Z        PSCENC =         0.24331934
  Ewald energy   TEWEN  =       128.98720828
  -Hartree energ DENC   =      -284.59481914
  -exchange      EXHF   =         0.00000000
  -V(xc)+E(xc)   XCENC  =        24.75309825
  PAW double counting   =       470.03272601     -470.82184339
  entropy T*S    EENTRO =        -0.00000000
  eigenvalues    EBANDS =       -89.58100814
  atomic energy  EATOM  =       197.04175453
  Solvation  Ediel_sol  =         0.00000000
  ---------------------------------------------------
  free energy    TOTEN  =       -23.93956426 eV

  energy without entropy =      -23.93956426  energy(sigma->0) =      -23.93956426


--------------------------------------------------------------------------------------------------------




--------------------------------------- Iteration      1(  16)  ---------------------------------------


    POTLOK:  cpu time    1.2417: real time    1.2447
    SETDIJ:  cpu time    0.0064: real time    0.0064
     EDDAV:  cpu time    0.3738: real time    0.3747
       DOS:  cpu time    0.0001: real time    0.0001
    CHARGE:  cpu time    0.0728: real time    0.0730
    MIXING:  cpu time    0.0380: real time    0.0381
    --------------------------------------------
      LOOP:  cpu time    1.7328: real time    1.7369

 eigenvalue-minimisations  :    16
 total energy-change (2. order) :-0.8016121E-04  (-0.3060179E-06)
 number of electron       8.0000005 magnetization 
 augmentation part        0.1856178 magnetization 

 Broyden mixing:
  rms(total) = 0.13002E-03    rms(broyden)= 0.12999E-03
  rms(prec ) = 0.23184E-03
  weight for this iteration     100.00

 eigenvalues of (default mixing * dielectric matrix)
  average eigenvalue GAMMA=   2.7007
  8.2543  5.0035  3.9077  2.7230  2.4138  2.0815  1.2690  1.0718  0.9950  0.9950
  0.9931

 Free energy of the ion-electron system (eV)
  ---------------------------------------------------
  alpha Z        PSCENC =         0.24331934
  Ewald energy   TEWEN  =       128.98720828
  -Hartree energ DENC   =      -284.61350348
  -exchange      EXHF   =         0.00000000
  -V(xc)+E(xc)   XCENC  =        24.75432395
  PAW double counting   =       470.23384833     -471.02304625
  entropy T*S    EENTRO =        -0.00000000
  eigenvalues    EBANDS =       -89.56354911
  atomic energy  EATOM  =       197.04175453
  Solvation  Ediel_sol  =         0.00000000
  ---------------------------------------------------
  free energy    TOTEN  =       -23.93964442 eV

  energy without entropy =      -23.93964442  energy(sigma->0) =      -23.93964442


--------------------------------------------------------------------------------------------------------




--------------------------------------- Iteration      1(  17)  ---------------------------------------


    POTLOK:  cpu time    1.3203: real time    1.3234
    SETDIJ:  cpu time    0.0064: real time    0.0064
     EDDAV:  cpu time    0.6821: real time    0.6837
       DOS:  cpu time    0.0001: real time    0.0001
    CHARGE:  cpu time    0.0749: real time    0.0751
    MIXING:  cpu time    0.0418: real time    0.0419
    --------------------------------------------
      LOOP:  cpu time    2.1256: real time    2.1306

 eigenvalue-minimisations  :    32
 total energy-change (2. order) :-0.3149337E-04  (-0.2001832E-06)
 number of electron       8.0000005 magnetization 
 augmentation part        0.1856116 magnetization 

 Broyden mixing:
  rms(total) = 0.96768E-04    rms(broyden)= 0.96741E-04
  rms(prec ) = 0.15477E-03
  weight for this iteration     100.00

 eigenvalues of (default mixing * dielectric matrix)
  average eigenvalue GAMMA=   2.5898
  8.4399  5.1916  3.8105  2.6937  2.3647  2.1534  1.2521  1.2410  1.0200  1.0200
  0.9865  0.9041

 Free energy of the ion-electron system (eV)
  ---------------------------------------------------
  alpha Z        PSCENC =         0.24331934
  Ewald energy   TEWEN  =       128.98720828
  -Hartree energ DENC   =      -284.62270395
  -exchange      EXHF   =         0.00000000
  -V(xc)+E(xc)   XCENC  =        24.75473088
  PAW double counting   =       470.32582660     -471.11503226
  entropy T*S    EENTRO =        -0.00000000
  eigenvalues    EBANDS =       -89.55477934
  atomic energy  EATOM  =       197.04175453
  Solvation  Ediel_sol  =         0.00000000
  ---------------------------------------------------
  free energy    TOTEN  =       -23.93967592 eV

  energy without entropy =      -23.93967592  energy(sigma->0) =      -23.93967592


--------------------------------------------------------------------------------------------------------




--------------------------------------- Iteration      1(  18)  ---------------------------------------


    POTLOK:  cpu time    1.3303: real time    1.3335
    SETDIJ:  cpu time    0.0064: real time    0.0064
     EDDAV:  cpu time    0.5316: real time    0.5328
       DOS:  cpu time    0.0001: real time    0.0001
    CHARGE:  cpu time    0.0759: real time    0.0761
    MIXING:  cpu time    0.0400: real time    0.0401
    --------------------------------------------
      LOOP:  cpu time    1.9843: real time    1.9890

 eigenvalue-minimisations  :    24
 total energy-change (2. order) :-0.3155419E-05  (-0.3077462E-07)
 number of electron       8.0000005 magnetization 
 augmentation part        0.1856170 magnetization 

 Broyden mixing:
  rms(total) = 0.30244E-04    rms(broyden)= 0.30216E-04
  rms(prec ) = 0.65035E-04
  weight for this iteration     100.00

 eigenvalues of (default mixing * dielectric matrix)
  average eigenvalue GAMMA=   2.6042
  8.5363  5.3586  3.9948  2.8542  2.5513  2.2866  1.8455  1.2440  1.1693  0.9857
  0.9857  1.0210  1.0210

 Free energy of the ion-electron system (eV)
  ---------------------------------------------------
  alpha Z        PSCENC =         0.24331934
  Ewald energy   TEWEN  =       128.98720828
  -Hartree energ DENC   =      -284.61788589
  -exchange      EXHF   =         0.00000000
  -V(xc)+E(xc)   XCENC  =        24.75444201
  PAW double counting   =       470.30389987     -471.09306757
  entropy T*S    EENTRO =        -0.00000000
  eigenvalues    EBANDS =       -89.55934965
  atomic energy  EATOM  =       197.04175453
  Solvation  Ediel_sol  =         0.00000000
  ---------------------------------------------------
  free energy    TOTEN  =       -23.93967907 eV

  energy without entropy =      -23.93967907  energy(sigma->0) =      -23.93967907


--------------------------------------------------------------------------------------------------------




--------------------------------------- Iteration      1(  19)  ---------------------------------------


    POTLOK:  cpu time    1.3425: real time    1.3458
    SETDIJ:  cpu time    0.0063: real time    0.0064
     EDDAV:  cpu time    0.3815: real time    0.3824
       DOS:  cpu time    0.0001: real time    0.0001
    CHARGE:  cpu time    0.0771: real time    0.0773
    MIXING:  cpu time    0.0412: real time    0.0413
    --------------------------------------------
      LOOP:  cpu time    1.8488: real time    1.8533

 eigenvalue-minimisations  :    16
 total energy-change (2. order) :-0.2988653E-05  (-0.1201198E-07)
 number of electron       8.0000005 magnetization 
 augmentation part        0.1856165 magnetization 

 Broyden mixing:
  rms(total) = 0.14489E-04    rms(broyden)= 0.14488E-04
  rms(prec ) = 0.32362E-04
  weight for this iteration     100.00

 eigenvalues of (default mixing * dielectric matrix)
  average eigenvalue GAMMA=   2.5715
  8.5868  5.4239  4.2088  3.1248  2.6768  2.2739  2.1208  1.2950  1.2415  0.9494
  1.0221  1.0221  1.0276  1.0276

 Free energy of the ion-electron system (eV)
  ---------------------------------------------------
  alpha Z        PSCENC =         0.24331934
  Ewald energy   TEWEN  =       128.98720828
  -Hartree energ DENC   =      -284.61786969
  -exchange      EXHF   =         0.00000000
  -V(xc)+E(xc)   XCENC  =        24.75441346
  PAW double counting   =       470.31293980     -471.10210661
  entropy T*S    EENTRO =        -0.00000000
  eigenvalues    EBANDS =       -89.55934117
  atomic energy  EATOM  =       197.04175453
  Solvation  Ediel_sol  =         0.00000000
  ---------------------------------------------------
  free energy    TOTEN  =       -23.93968206 eV

  energy without entropy =      -23.93968206  energy(sigma->0) =      -23.93968206


--------------------------------------------------------------------------------------------------------




--------------------------------------- Iteration      1(  20)  ---------------------------------------


    POTLOK:  cpu time    1.3306: real time    1.3338
    SETDIJ:  cpu time    0.0063: real time    0.0064
     EDDAV:  cpu time    0.6805: real time    0.6821
       DOS:  cpu time    0.0001: real time    0.0001
    --------------------------------------------
      LOOP:  cpu time    2.0175: real time    2.0223

 eigenvalue-minimisations  :    32
 total energy-change (2. order) :-0.7216448E-06  (-0.2049536E-08)
 number of electron       8.0000005 magnetization 
 augmentation part        0.1856165 magnetization 

 Free energy of the ion-electron system (eV)
  ---------------------------------------------------
  alpha Z        PSCENC =         0.24331934
  Ewald energy   TEWEN  =       128.98720828
  -Hartree energ DENC   =      -284.61763259
  -exchange      EXHF   =         0.00000000
  -V(xc)+E(xc)   XCENC  =        24.75440575
  PAW double counting   =       470.30615964     -471.09532658
  entropy T*S    EENTRO =        -0.00000000
  eigenvalues    EBANDS =       -89.55957115
  atomic energy  EATOM  =       197.04175453
  Solvation  Ediel_sol  =         0.00000000
  ---------------------------------------------------
  free energy    TOTEN  =       -23.93968278 eV

  energy without entropy =      -23.93968278  energy(sigma->0) =      -23.93968278


--------------------------------------------------------------------------------------------------------




 average (electrostatic) potential at core
  the test charge radii are     0.5201  0.6991
  (the norm of the test charge is              1.0000)
       1 -41.5417       2 -41.8850       3 -41.5649       4 -41.1010       5 -57.9672



 E-fermi :  -8.5682     XC(G=0):  -0.6996     alpha+bet : -0.2116


 k-point     1 :       0.0000    0.0000    0.0000
  band No.  band energies     occupation 
      1     -16.9043      2.00000
      2      -9.6843      2.00000
      3      -9.3350      2.00000
      4      -8.8561      2.00000
      5      -0.5315      0.00000
      6       0.9678      0.00000
      7       0.9894      0.00000
      8       1.0785      0.00000


--------------------------------------------------------------------------------------------------------


 soft charge-density along one line, spin component           1
         0         1         2         3         4         5         6         7         8         9
 total charge-density along one line

 pseudopotential strength for first ion, spin component:           1
 -2.341  -4.035   0.000  -0.002   0.001
 -4.035  -6.866   0.001  -0.005   0.002
  0.000   0.001  -0.338  -0.001   0.000
 -0.002  -0.005  -0.001  -0.334  -0.001
  0.001   0.002   0.000  -0.001  -0.338
 total augmentation occupancy for first ion, spin component:           1
  3.565  -0.641  -0.106   0.401  -0.135
 -0.641   0.129   0.020  -0.074   0.025
 -0.106   0.020   0.012  -0.010   0.003
  0.401  -0.074  -0.010   0.047  -0.013
 -0.135   0.025   0.003  -0.013   0.013


------------------------ aborting loop because EDIFF is reached ----------------------------------------


    CHARGE:  cpu time    0.0749: real time    0.0751
    FORLOC:  cpu time    0.0988: real time    0.0990
    FORNL :  cpu time    0.1246: real time    0.1249
    STRESS:  cpu time    0.4731: real time    0.4742
    FORCOR:  cpu time    1.4313: real time    1.4346
    FORHAR:  cpu time    0.4607: real time    0.4618
    MIXING:  cpu time    0.0426: real time    0.0427
    OFIELD:  cpu time    0.0000: real time    0.0000

  FORCE on cell =-STRESS in cart. coord.  units (eV):
  Direction    XX          YY          ZZ          XY          YZ          ZX
  --------------------------------------------------------------------------------------
  Alpha Z     0.24332     0.24332     0.24332
  Ewald      46.51298    37.24950    45.22472    -2.16943    -3.28007     1.14397
  Hartree    92.28874    95.45674    96.87259    -0.64151    -1.24573     0.59440
  E(xc)     -27.20550   -27.23949   -27.22852    -0.00397    -0.01989     0.00808
  Local    -195.51561  -193.51009  -200.73602     2.30081     4.11407    -1.67488
  n-local   -16.00859   -15.81794   -15.94450     0.01954    -0.02325     0.01378
  augment     0.09683     0.13288     0.11451     0.00479     0.00227     0.00016
  Kinetic   100.23613   102.12801   101.40554     0.24978     0.96076    -0.35034
  Fock        0.00000     0.00000     0.00000     0.00000     0.00000     0.00000
  -------------------------------------------------------------------------------------
  Total       0.64831    -1.35709    -0.04836    -0.23999     0.50815    -0.26484
  in kB       1.04330    -2.18389    -0.07782    -0.38620     0.81774    -0.42619
  external pressure =       -0.41 kB  Pullay stress =        0.00 kB


 VOLUME and BASIS-vectors are now :
 -----------------------------------------------------------------------------
  energy-cutoff  :      400.00
  volume of cell :      995.61
      direct lattice vectors                 reciprocal lattice vectors
    10.269575100  0.000000000  0.000000000     0.097375012  0.002518995 -0.001083585
    -0.255660000  9.882867800  0.000000000    -0.000000000  0.101185205  0.001526796
     0.112990400 -0.148018900  9.809640900     0.000000000 -0.000000000  0.101940531

  length of vectors
    10.269575100  9.886174082  9.811408207     0.097413615  0.101196723  0.101940531


 FORCES acting on ions
    electron-ion (+dipol)            ewald-force                    non-local-force                 convergence-correction
 -----------------------------------------------------------------------------------------------
   -.162E+02 -.133E+02 0.487E+02   0.179E+02 0.147E+02 -.540E+02   -.174E+01 -.135E+01 0.513E+01   0.306E-04 -.803E-05 -.254E-04
   0.510E+02 -.171E+02 -.887E+01   -.579E+02 0.196E+02 0.102E+02   0.577E+01 -.184E+01 -.968E+00   -.604E-04 -.551E-05 0.192E-04
   -.358E+02 -.167E+02 -.356E+02   0.396E+02 0.187E+02 0.396E+02   -.385E+01 -.161E+01 -.374E+01   0.407E-04 -.117E-04 0.224E-04
   -.646E+00 0.506E+02 -.441E+01   0.617E+00 -.542E+02 0.455E+01   -.108E+00 0.477E+01 -.458E+00   0.649E-05 -.174E-04 0.955E-05
   0.661E+00 -.168E+01 0.257E+00   -.212E+00 0.115E+01 -.332E+00   0.896E+00 -.179E+01 -.494E-01   0.644E-04 -.140E-03 0.931E-04
 -----------------------------------------------------------------------------------------------
   -.979E+00 0.181E+01 0.889E-01   -.777E-14 0.000E+00 -.178E-14   0.979E+00 -.181E+01 -.885E-01   0.818E-04 -.183E-03 0.119E-03


 POSITION                                       TOTAL-FORCE (eV/Angst)
 -----------------------------------------------------------------------------------
      5.42255      4.84511      3.35835        -0.000690      0.052038     -0.156695
      4.09485      4.90592      4.53525        -1.122485      0.623300      0.375070
      5.82287      4.91157      5.09268        -0.085099      0.458477      0.217479
      5.10511      3.43795      4.46180        -0.137058      1.188006     -0.311369
      5.08585      4.57899      4.36210         1.345331     -2.321821     -0.124484
 -----------------------------------------------------------------------------------
    total drift:                                0.000116      0.000007      0.000461


--------------------------------------------------------------------------------------------------------



  FREE ENERGIE OF THE ION-ELECTRON SYSTEM (eV)
  ---------------------------------------------------
  free  energy   TOTEN  =       -23.93968278 eV

  energy  without entropy=      -23.93968278  energy(sigma->0) =      -23.93968278



--------------------------------------------------------------------------------------------------------


    POTLOK:  cpu time    1.3570: real time    1.3602


--------------------------------------------------------------------------------------------------------


     LOOP+:  cpu time   37.5699: real time   37.6811
    4ORBIT:  cpu time    0.0000: real time    0.0000

 total amount of memory used by VASP MPI-rank0   254155. kBytes
=======================================================================

   base      :      30000. kBytes
   nonlr-proj:       1131. kBytes
   fftplans  :      79272. kBytes
   grid      :     141424. kBytes
   one-center:         15. kBytes
   wavefun   :       2313. kBytes

  
  
 General timing and accounting informations for this job:
 ========================================================
  
                  Total CPU time used (sec):       39.215
                            User time (sec):       37.923
                          System time (sec):        1.292
                         Elapsed time (sec):       39.336
  
                   Maximum memory used (kb):      359348.
                   Average memory used (kb):           0.
  
                          Minor page faults:       229181
                          Major page faults:            0
                 Voluntary context switches:          147
