# LAMMPS data file written by OVITO
5 atoms
2 atom types
0.0 10.2695751 xlo xhi
0.0 9.8828678 ylo yhi
0.0 9.8096409 zlo zhi
-0.25566 0.1129904 -0.1480189 xy xz yz

Atoms # atomic

1 1 5.4496298 3.9550744 3.5270009
2 1 3.9603648 4.7050138 4.3392105
3 1 5.6214743 5.5181895 4.342535
4 1 5.38479 4.0156612 5.2643929
5 2 5.0882759 4.5712114 4.360014
