# LAMMPS data file written by OVITO
5 atoms
2 atom types
0.0 10.0 xlo xhi
0.0 10.0 ylo yhi
0.0 10.0 zlo zhi

Atoms # atomic

1 1 5.3658624 4.0541487 3.5984781
2 1 3.9261074 4.8262801 4.4244814
3 1 5.5636015 5.6503253 4.4306431
4 1 5.2872887 4.1434689 5.3670259
5 2 5.0193648 4.6887923 4.4410277
