# LAMMPS data file written by OVITO
5 atoms
2 atom types
0.0 9.7438946 xlo xhi
0.0 9.9589844 ylo yhi
0.0 9.8715296 zlo zhi
0.2904835 -0.1112964 0.1928796 xy xz yz

Atoms # atomic

1 1 5.3073554 4.1084137 3.5497115
2 1 3.9152606 4.895836 4.3673506
3 1 5.5386453 5.7145624 4.3776193
4 1 5.2122092 4.2350278 5.2936216
5 2 4.9806128 4.7622481 4.3902068
