# LAMMPS data file written by OVITO
5 atoms
2 atom types
0.0 10.2510615 xlo xhi
0.0 9.7271137 ylo yhi
0.0 10.2261515 zlo zhi
-0.2045252 -0.1997758 0.0336085 xy xz yz

Atoms # atomic

1 1 5.341291 3.955417 3.6753738
2 1 3.8387926 4.718185 4.5245629
3 1 5.5021296 5.5070811 4.5352006
4 1 5.2312732 4.0514584 5.4851055
5 2 4.9608574 4.5755682 4.5395923
