# LAMMPS data file written by OVITO
5 atoms
2 atom types
0.0 10.0066195 xlo xhi
0.0 9.7418852 ylo yhi
0.0 10.2216263 zlo zhi
-0.2212445 -0.082073 0.2414281 xy xz yz

Atoms # atomic

1 1 5.2424355 4.0326643 3.6817916
2 1 3.7872484 4.8132806 4.5295134
3 1 5.4080773 5.6093822 4.5272002
4 1 5.1613288 4.1631756 5.4910856
5 2 4.885891 4.6760903 4.5354624
