# LAMMPS data file written by OVITO
5 atoms
2 atom types
0.0 9.7907372 xlo xhi
0.0 10.210743 ylo yhi
0.0 9.9832382 zlo zhi
-0.3032843 -0.2392274 0.0022112 xy xz yz

Atoms # atomic

1 1 5.0514951 4.1363874 3.5958181
2 1 3.5986617 4.9266896 4.4225583
3 1 5.1743994 5.7686091 4.4268413
4 1 4.9201412 4.2307224 5.3551355
5 2 4.6616316 4.786418 4.4401984
