# LAMMPS data file written by OVITO
5 atoms
2 atom types
0.0 9.888299 xlo xhi
0.0 10.0907984 ylo yhi
0.0 10.2274933 zlo zhi
0.2133294 0.0527356 0.0794372 xy xz yz

Atoms # atomic

1 1 5.4081798 4.1126366 3.6856556
2 1 4.0096374 4.9021616 4.5293494
3 1 5.6453719 5.7368126 4.5314117
4 1 5.345439 4.2292137 5.4868961
5 2 5.0833421 4.7654057 4.5382161
