# LAMMPS data file written by OVITO
5 atoms
2 atom types
0.0 10.0069351 xlo xhi
0.0 10.192029 ylo yhi
0.0 9.8264046 zlo zhi
0.1226875 0.1866922 -0.1718053 xy xz yz

Atoms # atomic

1 1 5.4807754 4.0768881 3.5395665
2 1 4.0728502 4.8414284 4.351943
3 1 5.7119127 5.6871519 4.3567519
4 1 5.4421869 4.128942 5.2681151
5 2 5.1656308 4.7046213 4.3614006
