# LAMMPS data file written by OVITO
5 atoms
2 atom types
0.0 10.1895285 xlo xhi
0.0 9.9549762 ylo yhi
0.0 9.874858 zlo zhi
0.0344264 -0.0094449 0.085527 xy xz yz

Atoms # atomic

1 1 5.4803977 4.0650592 3.553294
2 1 4.0094604 4.8463388 4.3663364
3 1 5.6905442 5.6639819 4.3739128
4 1 5.3921952 4.1707649 5.3016095
5 2 5.1265531 4.7055626 4.385314
