# LAMMPS data file written by OVITO
5 atoms
2 atom types
0.0 10.2830401 xlo xhi
0.0 10.103137 ylo yhi
0.0 10.0453777 zlo zhi
-0.1512127 0.0454205 0.0447939 xy xz yz

Atoms # atomic

1 1 5.4743738 4.1141195 3.6148308
2 1 3.9885472 4.9015208 4.4455915
3 1 5.6559186 5.7325907 4.4581132
4 1 5.3975935 4.212059 5.3910642
5 2 5.113483 4.7585202 4.4653182
