 vasp.5.4.4.18Apr17-6-g9f103f2a35 (build Jul 12 2018 13:43:46) complex           
 executed on             LinuxGNU date 2019.06.25  21:09:33
 running on    1 total cores
 distrk:  each k-point on    1 cores,    1 groups
 distr:  one band on NCORES_PER_BAND=   1 cores,    1 groups


--------------------------------------------------------------------------------------------------------


 INCAR:
 POTCAR:    PAW_PBE H 15Jun2001                   
 POTCAR:    PAW_PBE C 08Apr2002                   
 POTCAR:    PAW_PBE H 15Jun2001                   
   VRHFIN =H: ultrasoft test                                                    
   LEXCH  = PE                                                                  
   EATOM  =    12.4884 eV,    0.9179 Ry                                         
                                                                                
   TITEL  = PAW_PBE H 15Jun2001                                                 
   LULTRA =        F    use ultrasoft PP ?                                      
   IUNSCR =        0    unscreen: 0-lin 1-nonlin 2-no                           
   RPACOR =    0.000    partial core radius                                     
   POMASS =    1.000; ZVAL   =    1.000    mass and valenz                      
   RCORE  =    1.100    outmost cutoff radius                                   
   RWIGS  =    0.700; RWIGS  =    0.370    wigner-seitz radius (au A)           
   ENMAX  =  250.000; ENMIN  =  200.000 eV                                      
   RCLOC  =    0.701    cutoff for local pot                                    
   LCOR   =        T    correct aug charges                                     
   LPAW   =        T    paw PP                                                  
   EAUG   =  400.000                                                            
   RMAX   =    1.123    core radius for proj-oper                               
   RAUG   =    1.200    factor for augmentation sphere                          
   RDEP   =    1.112    radius for radial grids                                 
   RDEPT  =    0.926    core radius for aug-charge                              
                                                                                
   Atomic configuration                                                         
    2 entries                                                                   
     n  l   j            E        occ.                                          
     1  0  0.50        -6.4927   1.0000                                         
     2  1  0.50        -3.4015   0.0000                                         
   Description                                                                  
     l       E           TYP  RCUT    TYP  RCUT                                 
     0     -6.4927494     23  1.100                                             
     0      6.8029130     23  1.100                                             
     1     -4.0817478     23  1.100                                             
  local pseudopotential read in
  atomic valenz-charges read in
  non local Contribution for L=           0  read in
    real space projection operators read in
  non local Contribution for L=           0  read in
    real space projection operators read in
  non local Contribution for L=           1  read in
    real space projection operators read in
    PAW grid and wavefunctions read in

   number of l-projection  operators is LMAX  =           3
   number of lm-projection operators is LMMAX =           5

 POTCAR:    PAW_PBE C 08Apr2002                   
   VRHFIN =C: s2p2                                                              
   LEXCH  = PE                                                                  
   EATOM  =   147.1560 eV,   10.8157 Ry                                         
                                                                                
   TITEL  = PAW_PBE C 08Apr2002                                                 
   LULTRA =        F    use ultrasoft PP ?                                      
   IUNSCR =        1    unscreen: 0-lin 1-nonlin 2-no                           
   RPACOR =    1.200    partial core radius                                     
   POMASS =   12.011; ZVAL   =    4.000    mass and valenz                      
   RCORE  =    1.500    outmost cutoff radius                                   
   RWIGS  =    1.630; RWIGS  =    0.863    wigner-seitz radius (au A)           
   ENMAX  =  400.000; ENMIN  =  300.000 eV                                      
   ICORE  =        2    local potential                                         
   LCOR   =        T    correct aug charges                                     
   LPAW   =        T    paw PP                                                  
   EAUG   =  644.873                                                            
   DEXC   =    0.000                                                            
   RMAX   =    1.529    core radius for proj-oper                               
   RAUG   =    1.300    factor for augmentation sphere                          
   RDEP   =    1.501    radius for radial grids                                 
   RDEPT  =    1.300    core radius for aug-charge                              
                                                                                
   Atomic configuration                                                         
    4 entries                                                                   
     n  l   j            E        occ.                                          
     1  0  0.50      -273.3789   2.0000                                         
     2  0  0.50       -13.7508   2.0000                                         
     2  1  0.50        -5.2854   2.0000                                         
     3  2  1.50        -5.4423   0.0000                                         
   Description                                                                  
     l       E           TYP  RCUT    TYP  RCUT                                 
     0    -13.7508458     23  1.200                                             
     0     -8.2022199     23  1.200                                             
     1     -5.2854383     23  1.500                                             
     1     34.0145650     23  1.500                                             
     2     -5.4423304      7  1.500                                             
  local pseudopotential read in
  partial core-charges read in
  partial kinetic energy density read in
  atomic valenz-charges read in
  non local Contribution for L=           0  read in
    real space projection operators read in
  non local Contribution for L=           0  read in
    real space projection operators read in
  non local Contribution for L=           1  read in
    real space projection operators read in
  non local Contribution for L=           1  read in
    real space projection operators read in
    PAW grid and wavefunctions read in

   number of l-projection  operators is LMAX  =           4
   number of lm-projection operators is LMMAX =           8


 ----------------------------------------------------------------------------- 
|                                                                             |
|  ADVICE TO THIS USER RUNNING 'VASP/VAMP'   (HEAR YOUR MASTER'S VOICE ...):  |
|                                                                             |
|      You have a (more or less) 'small supercell' and for smaller cells      |
|      it is recommended  to use the reciprocal-space projection scheme!      |
|      The real space optimization is not  efficient for small cells and it   |
|      is also less accurate ...                                              |
|      Therefore set LREAL=.FALSE. in the  INCAR file                         |
|                                                                             |
 ----------------------------------------------------------------------------- 

 Optimization of the real space projectors (new method)

 maximal supplied QI-value         = 34.20
 optimisation between [QCUT,QGAM] = [  9.92, 20.18] = [ 27.55,114.04] Ry 
 Optimized for a Real-space Cutoff    1.34 Angstroem

   l    n(q)    QCUT    max X(q) W(low)/X(q) W(high)/X(q)  e(spline) 
   0      8     9.919    19.460    0.16E-03    0.20E-03    0.36E-06
   0      8     9.919    12.209    0.16E-03    0.20E-03    0.35E-06
   1      8     9.919     4.655    0.19E-03    0.46E-03    0.40E-06
 Optimization of the real space projectors (new method)

 maximal supplied QI-value         = 25.13
 optimisation between [QCUT,QGAM] = [ 10.05, 20.36] = [ 28.30,116.06] Ry 
 Optimized for a Real-space Cutoff    1.51 Angstroem

   l    n(q)    QCUT    max X(q) W(low)/X(q) W(high)/X(q)  e(spline) 
   0      9    10.053   115.676    0.19E-03    0.21E-03    0.38E-06
   0      9    10.053    87.132    0.19E-03    0.21E-03    0.38E-06
   1      9    10.053     4.429    0.87E-04    0.11E-03    0.39E-06
   1      9    10.053     2.733    0.59E-04    0.62E-04    0.43E-06
  PAW_PBE H 15Jun2001                   :
 energy of atom  1       EATOM=  -12.4884
 kinetic energy error for atom=    0.0098 (will be added to EATOM!!)
  PAW_PBE C 08Apr2002                   :
 energy of atom  2       EATOM= -147.1560
 kinetic energy error for atom=    0.0288 (will be added to EATOM!!)


 POSCAR: POSCAR file written by OVITO            
  positions in cartesian coordinates
  No initial velocities read in
 exchange correlation table for  LEXCH =        8
   RHO(1)=    0.500       N(1)  =     2000
   RHO(2)=  100.500       N(2)  =     4000



--------------------------------------------------------------------------------------------------------


 ion  position               nearest neighbor table
   1  0.437  0.436  0.369-   5 1.05
   2  0.499  0.406  0.532-   5 1.07
   3  0.481  0.578  0.469-   5 1.13
   4  0.605  0.460  0.409-   5 1.10
   5  0.502  0.468  0.444-   1 1.05   2 1.07   4 1.10   3 1.13


IMPORTANT INFORMATION: All symmetrisations will be switched off!
NOSYMM: (Re-)initialisation of all symmetry stuff for point group C_1.




Automatic generation of k-mesh.
 generate k-points for:    1    1    1
Space group operators:
 irot       det(A)        alpha          n_x          n_y          n_z        tau_x        tau_y        tau_z
    1     1.000000     0.000000     1.000000     0.000000     0.000000     0.000000     0.000000     0.000000
 
 Subroutine IBZKPT returns following result:
 ===========================================
 
 Found      1 irreducible k-points:
 
 Following reciprocal coordinates:
            Coordinates               Weight
  0.000000  0.000000  0.000000      1.000000
 
 Following cartesian coordinates:
            Coordinates               Weight
  0.000000  0.000000  0.000000      1.000000
 


--------------------------------------------------------------------------------------------------------




 Dimension of arrays:
   k-points           NKPTS =      1   k-points in BZ     NKDIM =      1   number of bands    NBANDS=      8
   number of dos      NEDOS =    301   number of ions     NIONS =      5
   non local maximal  LDIM  =      4   non local SUM 2l+1 LMDIM =      8
   total plane-waves  NPLWV = 313600
   max r-space proj   IRMAX =   4575   max aug-charges    IRDMAX=   3913
   dimension x,y,z NGX =    70 NGY =   64 NGZ =   70
   dimension x,y,z NGXF=   140 NGYF=  128 NGZF=  140
   support grid    NGXF=   140 NGYF=  128 NGZF=  140
   ions per type =               4   1
   NGX,Y,Z   is equivalent  to a cutoff of  11.63, 10.92, 11.38 a.u.
   NGXF,Y,Z  is equivalent  to a cutoff of  23.26, 21.84, 22.76 a.u.

 SYSTEM =  unknown system                          
 POSCAR =  POSCAR file written by OVITO            

 Startparameter for this run:
   NWRITE =      2    write-flag & timer
   PREC   = a         normal or accurate (medium, high low for compatibility)
   ISTART =      0    job   : 0-new  1-cont  2-samecut
   ICHARG =      2    charge: 1-file 2-atom 10-const
   ISPIN  =      1    spin polarized calculation?
   LNONCOLLINEAR =      F non collinear calculations
   LSORBIT =      F    spin-orbit coupling
   INIWAV =      1    electr: 0-lowe 1-rand  2-diag
   LASPH  =      F    aspherical Exc in radial PAW
   METAGGA=      F    non-selfconsistent MetaGGA calc.

 Electronic Relaxation 1
   ENCUT  =  400.0 eV  29.40 Ry    5.42 a.u.  16.32 15.89 16.67*2*pi/ulx,y,z
   ENINI  =  400.0     initial cutoff
   ENAUG  =  644.9 eV  augmentation charge cutoff
   NELM   =    120;   NELMIN=  4; NELMDL= -5     # of ELM steps 
   EDIFF  = 0.1E-05   stopping-criterion for ELM
   LREAL  =      T    real-space projection
   NLSPLINE    = F    spline interpolate recip. space projectors
   LCOMPAT=      F    compatible to vasp.4.4
   GGA_COMPAT  = T    GGA compatible to vasp.4.4-vasp.4.6
   LMAXPAW     = -100 max onsite density
   LMAXMIX     =    2 max onsite mixed and CHGCAR
   VOSKOWN=      0    Vosko Wilk Nusair interpolation
   ROPT   =   -0.00025  -0.00025
 Ionic relaxation
   EDIFFG = 0.1E-04   stopping-criterion for IOM
   NSW    =      0    number of steps for IOM
   NBLOCK =      1;   KBLOCK =      1    inner block; outer block 
   IBRION =     -1    ionic relax: 0-MD 1-quasi-New 2-CG
   NFREE  =      0    steps in history (QN), initial steepest desc. (CG)
   ISIF   =      2    stress and relaxation
   IWAVPR =     10    prediction:  0-non 1-charg 2-wave 3-comb
   ISYM   =      0    0-nonsym 1-usesym 2-fastsym
   LCORR  =      T    Harris-Foulkes like correction to forces

   POTIM  = 0.5000    time-step for ionic-motion
   TEIN   =    0.0    initial temperature
   TEBEG  =    0.0;   TEEND  =   0.0 temperature during run
   SMASS  =  -3.00    Nose mass-parameter (am)
   estimated Nose-frequenzy (Omega)   =  0.10E-29 period in steps =****** mass=  -0.229E-26a.u.
   SCALEE = 1.0000    scale energy and forces
   NPACO  =    256;   APACO  = 16.0  distance and # of slots for P.C.
   PSTRESS=    0.0 pullay stress

  Mass of Ions in am
   POMASS =   1.00 12.01
  Ionic Valenz
   ZVAL   =   1.00  4.00
  Atomic Wigner-Seitz radii
   RWIGS  =  -1.00 -1.00
  virtual crystal weights 
   VCA    =   1.00  1.00
   NELECT =       8.0000    total number of electrons
   NUPDOWN=      -1.0000    fix difference up-down

 DOS related values:
   EMIN   =  10.00;   EMAX   =-10.00  energy-range for DOS
   EFERMI =   0.00
   ISMEAR =     0;   SIGMA  =   0.05  broadening in eV -4-tet -1-fermi 0-gaus

 Electronic relaxation 2 (details)
   IALGO  =     38    algorithm
   LDIAG  =      T    sub-space diagonalisation (order eigenvalues)
   LSUBROT=      F    optimize rotation matrix (better conditioning)
   TURBO    =      0    0=normal 1=particle mesh
   IRESTART =      0    0=no restart 2=restart with 2 vectors
   NREBOOT  =      0    no. of reboots
   NMIN     =      0    reboot dimension
   EREF     =   0.00    reference energy to select bands
   IMIX   =      4    mixing-type and parameters
     AMIX     =   0.40;   BMIX     =  1.00
     AMIX_MAG =   1.60;   BMIX_MAG =  1.00
     AMIN     =   0.10
     WC   =   100.;   INIMIX=   1;  MIXPRE=   1;  MAXMIX= -45

 Intra band minimization:
   WEIMIN = 0.0000     energy-eigenvalue tresh-hold
   EBREAK =  0.31E-07  absolut break condition
   DEPER  =   0.30     relativ break condition  

   TIME   =   0.40     timestep for ELM

  volume/ion in A,a.u.               =     199.29      1344.86
  Fermi-wavevector in a.u.,A,eV,Ry     =   0.327809  0.619470  1.462068  0.107459
  Thomas-Fermi vector in A             =   1.220856

 Write flags
   LWAVE        =      F    write WAVECAR
   LDOWNSAMPLE  =      F    k-point downsampling of WAVECAR
   LCHARG       =      F    write CHGCAR
   LVTOT        =      F    write LOCPOT, total local potential
   LVHAR        =      F    write LOCPOT, Hartree potential only
   LELF         =      F    write electronic localiz. function (ELF)
   LORBIT       =      0    0 simple, 1 ext, 2 COOP (PROOUT), +10 PAW based schemes


 Dipole corrections
   LMONO  =      F    monopole corrections only (constant potential shift)
   LDIPOL =      F    correct potential (dipole corrections)
   IDIPOL =      0    1-x, 2-y, 3-z, 4-all directions 
   EPSILON=  1.0000000 bulk dielectric constant

 Exchange correlation treatment:
   GGA     =    --    GGA type
   LEXCH   =     8    internal setting for exchange type
   VOSKOWN=      0    Vosko Wilk Nusair interpolation
   LHFCALC =     F    Hartree Fock is set to
   LHFONE  =     F    Hartree Fock one center treatment
   AEXX    =    0.0000 exact exchange contribution

 Linear response parameters
   LEPSILON=     F    determine dielectric tensor
   LRPA    =     F    only Hartree local field effects (RPA)
   LNABLA  =     F    use nabla operator in PAW spheres
   LVEL    =     F    velocity operator in full k-point grid
   LINTERFAST=   F  fast interpolation
   KINTER  =     0    interpolate to denser k-point grid
   CSHIFT  =0.1000    complex shift for real part using Kramers Kronig
   OMEGAMAX=  -1.0    maximum frequency
   DEG_THRESHOLD= 0.2000000E-02 threshold for treating states as degnerate
   RTIME   =   -0.100 relaxation time in fs
  (WPLASMAI=    0.000 imaginary part of plasma frequency in eV, 0.658/RTIME)
   DFIELD  = 0.0000000 0.0000000 0.0000000 field for delta impulse in time

 Orbital magnetization related:
   ORBITALMAG=     F  switch on orbital magnetization
   LCHIMAG   =     F  perturbation theory with respect to B field
   DQ        =  0.001000  dq finite difference perturbation B field
   LLRAUG    =     F  two centre corrections for induced B field



--------------------------------------------------------------------------------------------------------


 Static calculation
 charge density and potential will be updated during run
 non-spin polarized calculation
 Variant of blocked Davidson
 Davidson routine will perform the subspace rotation
 perform sub-space diagonalisation
    after iterative eigenvector-optimisation
 modified Broyden-mixing scheme, WC =      100.0
 initial mixing is a Kerker type mixing with AMIX =  0.4000 and BMIX =      1.0000
 Hartree-type preconditioning will be used
 using additional bands            4
 real space projection scheme for non local part
 use partial core corrections
 calculate Harris-corrections to forces   (improved forces if not selfconsistent)
 use gradient corrections 
 use of overlap-Matrix (Vanderbilt PP)
 Gauss-broadening in eV      SIGMA  =   0.05


--------------------------------------------------------------------------------------------------------


  energy-cutoff  :      400.00
  volume of cell :      996.44
      direct lattice vectors                 reciprocal lattice vectors
    10.006619500  0.000000000  0.000000000     0.099933849  0.002269562  0.000748798
    -0.221244500  9.741885200  0.000000000     0.000000000  0.102649536 -0.002424515
    -0.082073000  0.241428100 10.221626300     0.000000000 -0.000000000  0.097831790

  length of vectors
    10.006619500  9.744397179 10.224806488     0.099962422  0.102678165  0.097831790



 k-points in units of 2pi/SCALE and weight: read from INCAR                         
   0.00000000  0.00000000  0.00000000       1.000

 k-points in reciprocal lattice and weights: read from INCAR                         
   0.00000000  0.00000000  0.00000000       1.000

 position of ions in fractional coordinates (direct lattice) 
   0.43716171  0.43604948  0.36878867
   0.49877853  0.40633364  0.53193690
   0.48136752  0.57810048  0.46921400
   0.60463264  0.46019436  0.40918831
   0.50165672  0.46786107  0.44407123

 position of ions in cartesian coordinates  (Angst):
   4.24776980  4.33697990  3.76962000
   4.85753020  4.08688020  5.43726020
   4.65045030  5.74507000  4.79613020
   5.91493000  4.58195020  4.18257000
   4.87993000  4.66506010  4.53913020



--------------------------------------------------------------------------------------------------------


 k-point  1 :   0.0000 0.0000 0.0000  plane waves:   18093

 maximum and minimum number of plane-waves per node :     18093    18093

 maximum number of plane-waves:     18093
 maximum index in each direction: 
   IXMAX=   16   IYMAX=   15   IZMAX=   16
   IXMIN=  -16   IYMIN=  -15   IZMIN=  -16


 serial   3D FFT for wavefunctions
 parallel 3D FFT for charge:
    minimum data exchange during FFTs selected (reduces bandwidth)


 total amount of memory used by VASP MPI-rank0   274697. kBytes
=======================================================================

   base      :      30000. kBytes
   nonlr-proj:       1237. kBytes
   fftplans  :      86584. kBytes
   grid      :     154542. kBytes
   one-center:         15. kBytes
   wavefun   :       2319. kBytes

     INWAV:  cpu time    0.0000: real time    0.0000
 Broyden mixing: mesh for mixing (old mesh)
   NGX = 33   NGY = 31   NGZ = 33
  (NGX  =140   NGY  =128   NGZ  =140)
  gives a total of  33759 points

 initial charge density was supplied:
 charge density of overlapping atoms calculated
 number of electron       8.0000000 magnetization 
 keeping initial charge density in first step


--------------------------------------------------------------------------------------------------------


 Maximum index for non-local projection operator         4392
 Maximum index for augmentation-charges         3595 (set IRDMAX)


--------------------------------------------------------------------------------------------------------


 First call to EWALD:  gamma=   0.177
 Maximum number of real-space cells 3x 3x 3
 Maximum number of reciprocal cells 3x 3x 3

    FEWALD:  cpu time    0.0007: real time    0.0007


--------------------------------------- Iteration      1(   1)  ---------------------------------------


    POTLOK:  cpu time    1.7319: real time    1.7362
    SETDIJ:  cpu time    0.0066: real time    0.0066
     EDDAV:  cpu time    0.4804: real time    0.4815
       DOS:  cpu time    0.0002: real time    0.0002
    --------------------------------------------
      LOOP:  cpu time    2.2190: real time    2.2245

 eigenvalue-minimisations  :    16
 total energy-change (2. order) : 0.6400637E+02  (-0.1512648E+03)
 number of electron       8.0000000 magnetization 
 augmentation part        8.0000000 magnetization 

 Free energy of the ion-electron system (eV)
  ---------------------------------------------------
  alpha Z        PSCENC =         0.24311671
  Ewald energy   TEWEN  =       131.16514931
  -Hartree energ DENC   =      -245.12293975
  -exchange      EXHF   =         0.00000000
  -V(xc)+E(xc)   XCENC  =        22.06802302
  PAW double counting   =       117.05815612     -117.66307307
  entropy T*S    EENTRO =        -0.00000000
  eigenvalues    EBANDS =       -40.78381192
  atomic energy  EATOM  =       197.04175453
  Solvation  Ediel_sol  =         0.00000000
  ---------------------------------------------------
  free energy    TOTEN  =        64.00637495 eV

  energy without entropy =       64.00637495  energy(sigma->0) =       64.00637495


--------------------------------------------------------------------------------------------------------




--------------------------------------- Iteration      1(   2)  ---------------------------------------


     EDDAV:  cpu time    0.8794: real time    0.8815
       DOS:  cpu time    0.0001: real time    0.0001
    --------------------------------------------
      LOOP:  cpu time    0.8795: real time    0.8817

 eigenvalue-minimisations  :    32
 total energy-change (2. order) :-0.7732629E+02  (-0.7732629E+02)
 number of electron       8.0000000 magnetization 
 augmentation part        8.0000000 magnetization 

 Free energy of the ion-electron system (eV)
  ---------------------------------------------------
  alpha Z        PSCENC =         0.24311671
  Ewald energy   TEWEN  =       131.16514931
  -Hartree energ DENC   =      -245.12293975
  -exchange      EXHF   =         0.00000000
  -V(xc)+E(xc)   XCENC  =        22.06802302
  PAW double counting   =       117.05815612     -117.66307307
  entropy T*S    EENTRO =        -0.00000000
  eigenvalues    EBANDS =      -118.11010638
  atomic energy  EATOM  =       197.04175453
  Solvation  Ediel_sol  =         0.00000000
  ---------------------------------------------------
  free energy    TOTEN  =       -13.31991950 eV

  energy without entropy =      -13.31991950  energy(sigma->0) =      -13.31991950


--------------------------------------------------------------------------------------------------------




--------------------------------------- Iteration      1(   3)  ---------------------------------------


     EDDAV:  cpu time    0.4941: real time    0.4953
       DOS:  cpu time    0.0001: real time    0.0001
    --------------------------------------------
      LOOP:  cpu time    0.4942: real time    0.4954

 eigenvalue-minimisations  :    16
 total energy-change (2. order) :-0.1352591E+02  (-0.1352591E+02)
 number of electron       8.0000000 magnetization 
 augmentation part        8.0000000 magnetization 

 Free energy of the ion-electron system (eV)
  ---------------------------------------------------
  alpha Z        PSCENC =         0.24311671
  Ewald energy   TEWEN  =       131.16514931
  -Hartree energ DENC   =      -245.12293975
  -exchange      EXHF   =         0.00000000
  -V(xc)+E(xc)   XCENC  =        22.06802302
  PAW double counting   =       117.05815612     -117.66307307
  entropy T*S    EENTRO =        -0.00000000
  eigenvalues    EBANDS =      -131.63601322
  atomic energy  EATOM  =       197.04175453
  Solvation  Ediel_sol  =         0.00000000
  ---------------------------------------------------
  free energy    TOTEN  =       -26.84582634 eV

  energy without entropy =      -26.84582634  energy(sigma->0) =      -26.84582634


--------------------------------------------------------------------------------------------------------




--------------------------------------- Iteration      1(   4)  ---------------------------------------


     EDDAV:  cpu time    0.8664: real time    0.8684
       DOS:  cpu time    0.0001: real time    0.0001
    --------------------------------------------
      LOOP:  cpu time    0.8665: real time    0.8685

 eigenvalue-minimisations  :    32
 total energy-change (2. order) :-0.7705555E+00  (-0.7705555E+00)
 number of electron       8.0000000 magnetization 
 augmentation part        8.0000000 magnetization 

 Free energy of the ion-electron system (eV)
  ---------------------------------------------------
  alpha Z        PSCENC =         0.24311671
  Ewald energy   TEWEN  =       131.16514931
  -Hartree energ DENC   =      -245.12293975
  -exchange      EXHF   =         0.00000000
  -V(xc)+E(xc)   XCENC  =        22.06802302
  PAW double counting   =       117.05815612     -117.66307307
  entropy T*S    EENTRO =        -0.00000000
  eigenvalues    EBANDS =      -132.40656876
  atomic energy  EATOM  =       197.04175453
  Solvation  Ediel_sol  =         0.00000000
  ---------------------------------------------------
  free energy    TOTEN  =       -27.61638188 eV

  energy without entropy =      -27.61638188  energy(sigma->0) =      -27.61638188


--------------------------------------------------------------------------------------------------------




--------------------------------------- Iteration      1(   5)  ---------------------------------------


     EDDAV:  cpu time    0.8844: real time    0.8865
       DOS:  cpu time    0.0001: real time    0.0001
    CHARGE:  cpu time    0.0957: real time    0.0959
    MIXING:  cpu time    0.0335: real time    0.0336
    --------------------------------------------
      LOOP:  cpu time    1.0137: real time    1.0161

 eigenvalue-minimisations  :    32
 total energy-change (2. order) :-0.3948235E-03  (-0.3948238E-03)
 number of electron       7.9999997 magnetization 
 augmentation part        0.2295216 magnetization 

 Broyden mixing:
  rms(total) = 0.89401E+00    rms(broyden)= 0.89377E+00
  rms(prec ) = 0.12578E+01
  weight for this iteration     100.00

 Free energy of the ion-electron system (eV)
  ---------------------------------------------------
  alpha Z        PSCENC =         0.24311671
  Ewald energy   TEWEN  =       131.16514931
  -Hartree energ DENC   =      -245.12293975
  -exchange      EXHF   =         0.00000000
  -V(xc)+E(xc)   XCENC  =        22.06802302
  PAW double counting   =       117.05815612     -117.66307307
  entropy T*S    EENTRO =        -0.00000000
  eigenvalues    EBANDS =      -132.40696358
  atomic energy  EATOM  =       197.04175453
  Solvation  Ediel_sol  =         0.00000000
  ---------------------------------------------------
  free energy    TOTEN  =       -27.61677671 eV

  energy without entropy =      -27.61677671  energy(sigma->0) =      -27.61677671


--------------------------------------------------------------------------------------------------------




--------------------------------------- Iteration      1(   6)  ---------------------------------------


    POTLOK:  cpu time    1.6142: real time    1.6180
    SETDIJ:  cpu time    0.0065: real time    0.0065
     EDDAV:  cpu time    0.6948: real time    0.6965
       DOS:  cpu time    0.0001: real time    0.0001
    CHARGE:  cpu time    0.0912: real time    0.0914
    MIXING:  cpu time    0.0349: real time    0.0349
    --------------------------------------------
      LOOP:  cpu time    2.4417: real time    2.4475

 eigenvalue-minimisations  :    24
 total energy-change (2. order) : 0.3022513E+01  (-0.9141353E+00)
 number of electron       7.9999996 magnetization 
 augmentation part        0.2007890 magnetization 

 Broyden mixing:
  rms(total) = 0.45512E+00    rms(broyden)= 0.45499E+00
  rms(prec ) = 0.56947E+00
  weight for this iteration     100.00

 eigenvalues of (default mixing * dielectric matrix)
  average eigenvalue GAMMA=   1.2057
  1.2057

 Free energy of the ion-electron system (eV)
  ---------------------------------------------------
  alpha Z        PSCENC =         0.24311671
  Ewald energy   TEWEN  =       131.16514931
  -Hartree energ DENC   =      -265.30716244
  -exchange      EXHF   =         0.00000000
  -V(xc)+E(xc)   XCENC  =        23.29264035
  PAW double counting   =       242.45348161     -243.23992972
  entropy T*S    EENTRO =        -0.00000000
  eigenvalues    EBANDS =      -110.24331430
  atomic energy  EATOM  =       197.04175453
  Solvation  Ediel_sol  =         0.00000000
  ---------------------------------------------------
  free energy    TOTEN  =       -24.59426395 eV

  energy without entropy =      -24.59426395  energy(sigma->0) =      -24.59426395


--------------------------------------------------------------------------------------------------------




--------------------------------------- Iteration      1(   7)  ---------------------------------------


    POTLOK:  cpu time    1.6220: real time    1.6259
    SETDIJ:  cpu time    0.0064: real time    0.0064
     EDDAV:  cpu time    0.6884: real time    0.6901
       DOS:  cpu time    0.0001: real time    0.0001
    CHARGE:  cpu time    0.0907: real time    0.0910
    MIXING:  cpu time    0.0343: real time    0.0344
    --------------------------------------------
      LOOP:  cpu time    2.4420: real time    2.4478

 eigenvalue-minimisations  :    24
 total energy-change (2. order) : 0.5038255E+00  (-0.8047351E-01)
 number of electron       7.9999996 magnetization 
 augmentation part        0.1919719 magnetization 

 Broyden mixing:
  rms(total) = 0.23059E+00    rms(broyden)= 0.23054E+00
  rms(prec ) = 0.28215E+00
  weight for this iteration     100.00

 eigenvalues of (default mixing * dielectric matrix)
  average eigenvalue GAMMA=   1.6966
  1.2614  2.1318

 Free energy of the ion-electron system (eV)
  ---------------------------------------------------
  alpha Z        PSCENC =         0.24311671
  Ewald energy   TEWEN  =       131.16514931
  -Hartree energ DENC   =      -275.72637530
  -exchange      EXHF   =         0.00000000
  -V(xc)+E(xc)   XCENC  =        24.07355270
  PAW double counting   =       376.33445816     -377.15182813
  entropy T*S    EENTRO =        -0.00000000
  eigenvalues    EBANDS =      -100.07026640
  atomic energy  EATOM  =       197.04175453
  Solvation  Ediel_sol  =         0.00000000
  ---------------------------------------------------
  free energy    TOTEN  =       -24.09043842 eV

  energy without entropy =      -24.09043842  energy(sigma->0) =      -24.09043842


--------------------------------------------------------------------------------------------------------




--------------------------------------- Iteration      1(   8)  ---------------------------------------


    POTLOK:  cpu time    1.6449: real time    1.6488
    SETDIJ:  cpu time    0.0065: real time    0.0066
     EDDAV:  cpu time    0.8965: real time    0.8986
       DOS:  cpu time    0.0001: real time    0.0001
    CHARGE:  cpu time    0.0967: real time    0.0970
    MIXING:  cpu time    0.0360: real time    0.0360
    --------------------------------------------
      LOOP:  cpu time    2.6807: real time    2.6871

 eigenvalue-minimisations  :    32
 total energy-change (2. order) : 0.1653360E+00  (-0.1723688E-01)
 number of electron       7.9999996 magnetization 
 augmentation part        0.1893089 magnetization 

 Broyden mixing:
  rms(total) = 0.27087E-01    rms(broyden)= 0.27058E-01
  rms(prec ) = 0.55808E-01
  weight for this iteration     100.00

 eigenvalues of (default mixing * dielectric matrix)
  average eigenvalue GAMMA=   1.5845
  2.1661  1.1439  1.4435

 Free energy of the ion-electron system (eV)
  ---------------------------------------------------
  alpha Z        PSCENC =         0.24311671
  Ewald energy   TEWEN  =       131.16514931
  -Hartree energ DENC   =      -282.74492208
  -exchange      EXHF   =         0.00000000
  -V(xc)+E(xc)   XCENC  =        24.69884323
  PAW double counting   =       494.33603410     -495.13945523
  entropy T*S    EENTRO =        -0.00000000
  eigenvalues    EBANDS =       -93.52562297
  atomic energy  EATOM  =       197.04175453
  Solvation  Ediel_sol  =         0.00000000
  ---------------------------------------------------
  free energy    TOTEN  =       -23.92510240 eV

  energy without entropy =      -23.92510240  energy(sigma->0) =      -23.92510240


--------------------------------------------------------------------------------------------------------




--------------------------------------- Iteration      1(   9)  ---------------------------------------


    POTLOK:  cpu time    1.6193: real time    1.6231
    SETDIJ:  cpu time    0.0064: real time    0.0064
     EDDAV:  cpu time    0.9079: real time    0.9100
       DOS:  cpu time    0.0001: real time    0.0001
    CHARGE:  cpu time    0.0891: real time    0.0894
    MIXING:  cpu time    0.0355: real time    0.0356
    --------------------------------------------
      LOOP:  cpu time    2.6583: real time    2.6646

 eigenvalue-minimisations  :    32
 total energy-change (2. order) : 0.8104775E-02  (-0.4137713E-03)
 number of electron       7.9999996 magnetization 
 augmentation part        0.1887472 magnetization 

 Broyden mixing:
  rms(total) = 0.15913E-01    rms(broyden)= 0.15909E-01
  rms(prec ) = 0.35320E-01
  weight for this iteration     100.00

 eigenvalues of (default mixing * dielectric matrix)
  average eigenvalue GAMMA=   1.8961
  2.9465  2.4365  0.9861  1.2152

 Free energy of the ion-electron system (eV)
  ---------------------------------------------------
  alpha Z        PSCENC =         0.24311671
  Ewald energy   TEWEN  =       131.16514931
  -Hartree energ DENC   =      -284.28410668
  -exchange      EXHF   =         0.00000000
  -V(xc)+E(xc)   XCENC  =        24.78546525
  PAW double counting   =       493.36900256     -494.16940170
  entropy T*S    EENTRO =        -0.00000000
  eigenvalues    EBANDS =       -92.06797760
  atomic energy  EATOM  =       197.04175453
  Solvation  Ediel_sol  =         0.00000000
  ---------------------------------------------------
  free energy    TOTEN  =       -23.91699762 eV

  energy without entropy =      -23.91699762  energy(sigma->0) =      -23.91699762


--------------------------------------------------------------------------------------------------------




--------------------------------------- Iteration      1(  10)  ---------------------------------------


    POTLOK:  cpu time    1.5373: real time    1.5410
    SETDIJ:  cpu time    0.0064: real time    0.0064
     EDDAV:  cpu time    0.5034: real time    0.5046
       DOS:  cpu time    0.0001: real time    0.0001
    CHARGE:  cpu time    0.0894: real time    0.0896
    MIXING:  cpu time    0.0362: real time    0.0362
    --------------------------------------------
      LOOP:  cpu time    2.1728: real time    2.1779

 eigenvalue-minimisations  :    16
 total energy-change (2. order) : 0.8441986E-02  (-0.5209490E-03)
 number of electron       7.9999996 magnetization 
 augmentation part        0.1885742 magnetization 

 Broyden mixing:
  rms(total) = 0.68513E-02    rms(broyden)= 0.68500E-02
  rms(prec ) = 0.16357E-01
  weight for this iteration     100.00

 eigenvalues of (default mixing * dielectric matrix)
  average eigenvalue GAMMA=   2.0888
  1.2153  0.9992  3.3691  2.4301  2.4301

 Free energy of the ion-electron system (eV)
  ---------------------------------------------------
  alpha Z        PSCENC =         0.24311671
  Ewald energy   TEWEN  =       131.16514931
  -Hartree energ DENC   =      -285.80812221
  -exchange      EXHF   =         0.00000000
  -V(xc)+E(xc)   XCENC  =        24.85090292
  PAW double counting   =       483.33977623     -484.13614959
  entropy T*S    EENTRO =        -0.00000000
  eigenvalues    EBANDS =       -90.60498355
  atomic energy  EATOM  =       197.04175453
  Solvation  Ediel_sol  =         0.00000000
  ---------------------------------------------------
  free energy    TOTEN  =       -23.90855564 eV

  energy without entropy =      -23.90855564  energy(sigma->0) =      -23.90855564


--------------------------------------------------------------------------------------------------------




--------------------------------------- Iteration      1(  11)  ---------------------------------------


    POTLOK:  cpu time    1.4408: real time    1.4442
    SETDIJ:  cpu time    0.0066: real time    0.0066
     EDDAV:  cpu time    0.6842: real time    0.6859
       DOS:  cpu time    0.0001: real time    0.0001
    CHARGE:  cpu time    0.0873: real time    0.0875
    MIXING:  cpu time    0.0378: real time    0.0379
    --------------------------------------------
      LOOP:  cpu time    2.2568: real time    2.2622

 eigenvalue-minimisations  :    24
 total energy-change (2. order) :-0.8917706E-02  (-0.4272829E-03)
 number of electron       7.9999996 magnetization 
 augmentation part        0.1880727 magnetization 

 Broyden mixing:
  rms(total) = 0.63766E-02    rms(broyden)= 0.63756E-02
  rms(prec ) = 0.10611E-01
  weight for this iteration     100.00

 eigenvalues of (default mixing * dielectric matrix)
  average eigenvalue GAMMA=   2.1294
  4.4843  2.8580  2.2576  1.2422  0.9673  0.9673

 Free energy of the ion-electron system (eV)
  ---------------------------------------------------
  alpha Z        PSCENC =         0.24311671
  Ewald energy   TEWEN  =       131.16514931
  -Hartree energ DENC   =      -286.83254230
  -exchange      EXHF   =         0.00000000
  -V(xc)+E(xc)   XCENC  =        24.88942229
  PAW double counting   =       486.60729531     -487.40578012
  entropy T*S    EENTRO =        -0.00000000
  eigenvalues    EBANDS =       -89.62588908
  atomic energy  EATOM  =       197.04175453
  Solvation  Ediel_sol  =         0.00000000
  ---------------------------------------------------
  free energy    TOTEN  =       -23.91747334 eV

  energy without entropy =      -23.91747334  energy(sigma->0) =      -23.91747334


--------------------------------------------------------------------------------------------------------




--------------------------------------- Iteration      1(  12)  ---------------------------------------


    POTLOK:  cpu time    1.4107: real time    1.4141
    SETDIJ:  cpu time    0.0064: real time    0.0064
     EDDAV:  cpu time    0.8914: real time    0.8935
       DOS:  cpu time    0.0001: real time    0.0001
    CHARGE:  cpu time    0.0888: real time    0.0890
    MIXING:  cpu time    0.0377: real time    0.0378
    --------------------------------------------
      LOOP:  cpu time    2.4351: real time    2.4409

 eigenvalue-minimisations  :    32
 total energy-change (2. order) :-0.2487587E-02  (-0.7712808E-04)
 number of electron       7.9999996 magnetization 
 augmentation part        0.1883226 magnetization 

 Broyden mixing:
  rms(total) = 0.22035E-02    rms(broyden)= 0.22032E-02
  rms(prec ) = 0.49710E-02
  weight for this iteration     100.00

 eigenvalues of (default mixing * dielectric matrix)
  average eigenvalue GAMMA=   2.2967
  5.0988  3.0318  2.6902  1.9672  1.2579  1.0156  1.0156

 Free energy of the ion-electron system (eV)
  ---------------------------------------------------
  alpha Z        PSCENC =         0.24311671
  Ewald energy   TEWEN  =       131.16514931
  -Hartree energ DENC   =      -286.49747929
  -exchange      EXHF   =         0.00000000
  -V(xc)+E(xc)   XCENC  =        24.86037632
  PAW double counting   =       482.93122518     -483.72877082
  entropy T*S    EENTRO =        -0.00000000
  eigenvalues    EBANDS =       -89.93533288
  atomic energy  EATOM  =       197.04175453
  Solvation  Ediel_sol  =         0.00000000
  ---------------------------------------------------
  free energy    TOTEN  =       -23.91996093 eV

  energy without entropy =      -23.91996093  energy(sigma->0) =      -23.91996093


--------------------------------------------------------------------------------------------------------




--------------------------------------- Iteration      1(  13)  ---------------------------------------


    POTLOK:  cpu time    1.3810: real time    1.3843
    SETDIJ:  cpu time    0.0064: real time    0.0064
     EDDAV:  cpu time    0.4968: real time    0.4980
       DOS:  cpu time    0.0001: real time    0.0001
    CHARGE:  cpu time    0.0902: real time    0.0905
    MIXING:  cpu time    0.0386: real time    0.0387
    --------------------------------------------
      LOOP:  cpu time    2.0131: real time    2.0179

 eigenvalue-minimisations  :    16
 total energy-change (2. order) :-0.4010606E-02  (-0.8823469E-04)
 number of electron       7.9999996 magnetization 
 augmentation part        0.1883109 magnetization 

 Broyden mixing:
  rms(total) = 0.20162E-02    rms(broyden)= 0.20159E-02
  rms(prec ) = 0.28804E-02
  weight for this iteration     100.00

 eigenvalues of (default mixing * dielectric matrix)
  average eigenvalue GAMMA=   2.3449
  5.9644  3.6779  2.5295  2.2591  1.2807  1.0904  1.0112  0.9461

 Free energy of the ion-electron system (eV)
  ---------------------------------------------------
  alpha Z        PSCENC =         0.24311671
  Ewald energy   TEWEN  =       131.16514931
  -Hartree energ DENC   =      -286.55950704
  -exchange      EXHF   =         0.00000000
  -V(xc)+E(xc)   XCENC  =        24.85963316
  PAW double counting   =       484.73477415     -485.53160702
  entropy T*S    EENTRO =        -0.00000000
  eigenvalues    EBANDS =       -89.87728533
  atomic energy  EATOM  =       197.04175453
  Solvation  Ediel_sol  =         0.00000000
  ---------------------------------------------------
  free energy    TOTEN  =       -23.92397154 eV

  energy without entropy =      -23.92397154  energy(sigma->0) =      -23.92397154


--------------------------------------------------------------------------------------------------------




--------------------------------------- Iteration      1(  14)  ---------------------------------------


    POTLOK:  cpu time    1.3538: real time    1.3570
    SETDIJ:  cpu time    0.0064: real time    0.0064
     EDDAV:  cpu time    0.9635: real time    0.9659
       DOS:  cpu time    0.0001: real time    0.0001
    CHARGE:  cpu time    0.0931: real time    0.0933
    MIXING:  cpu time    0.0400: real time    0.0401
    --------------------------------------------
      LOOP:  cpu time    2.4569: real time    2.4628

 eigenvalue-minimisations  :    32
 total energy-change (2. order) :-0.7171898E-03  (-0.8294603E-05)
 number of electron       7.9999996 magnetization 
 augmentation part        0.1882977 magnetization 

 Broyden mixing:
  rms(total) = 0.73744E-03    rms(broyden)= 0.73731E-03
  rms(prec ) = 0.13724E-02
  weight for this iteration     100.00

 eigenvalues of (default mixing * dielectric matrix)
  average eigenvalue GAMMA=   2.4832
  6.7347  4.0793  2.8864  2.3176  1.9908  1.2688  1.0007  1.0007  1.0697

 Free energy of the ion-electron system (eV)
  ---------------------------------------------------
  alpha Z        PSCENC =         0.24311671
  Ewald energy   TEWEN  =       131.16514931
  -Hartree energ DENC   =      -286.50342057
  -exchange      EXHF   =         0.00000000
  -V(xc)+E(xc)   XCENC  =        24.85300557
  PAW double counting   =       483.58546108     -484.38257373
  entropy T*S    EENTRO =        -0.00000000
  eigenvalues    EBANDS =       -89.92718163
  atomic energy  EATOM  =       197.04175453
  Solvation  Ediel_sol  =         0.00000000
  ---------------------------------------------------
  free energy    TOTEN  =       -23.92468873 eV

  energy without entropy =      -23.92468873  energy(sigma->0) =      -23.92468873


--------------------------------------------------------------------------------------------------------




--------------------------------------- Iteration      1(  15)  ---------------------------------------


    POTLOK:  cpu time    1.3741: real time    1.3774
    SETDIJ:  cpu time    0.0064: real time    0.0064
     EDDAV:  cpu time    0.4974: real time    0.4986
       DOS:  cpu time    0.0001: real time    0.0001
    CHARGE:  cpu time    0.0946: real time    0.0948
    MIXING:  cpu time    0.0404: real time    0.0405
    --------------------------------------------
      LOOP:  cpu time    2.0131: real time    2.0179

 eigenvalue-minimisations  :    16
 total energy-change (2. order) :-0.4088377E-03  (-0.3002320E-05)
 number of electron       7.9999996 magnetization 
 augmentation part        0.1883018 magnetization 

 Broyden mixing:
  rms(total) = 0.39098E-03    rms(broyden)= 0.39094E-03
  rms(prec ) = 0.58308E-03
  weight for this iteration     100.00

 eigenvalues of (default mixing * dielectric matrix)
  average eigenvalue GAMMA=   2.4883
  7.3542  4.6371  2.8184  2.5200  2.1090  1.3131  1.1703  1.0074  0.9769  0.9769

 Free energy of the ion-electron system (eV)
  ---------------------------------------------------
  alpha Z        PSCENC =         0.24311671
  Ewald energy   TEWEN  =       131.16514931
  -Hartree energ DENC   =      -286.51493835
  -exchange      EXHF   =         0.00000000
  -V(xc)+E(xc)   XCENC  =        24.85357142
  PAW double counting   =       483.38539202     -484.18243969
  entropy T*S    EENTRO =        -0.00000000
  eigenvalues    EBANDS =       -89.91670352
  atomic energy  EATOM  =       197.04175453
  Solvation  Ediel_sol  =         0.00000000
  ---------------------------------------------------
  free energy    TOTEN  =       -23.92509756 eV

  energy without entropy =      -23.92509756  energy(sigma->0) =      -23.92509756


--------------------------------------------------------------------------------------------------------




--------------------------------------- Iteration      1(  16)  ---------------------------------------


    POTLOK:  cpu time    1.3837: real time    1.3871
    SETDIJ:  cpu time    0.0067: real time    0.0067
     EDDAV:  cpu time    0.8976: real time    0.8997
       DOS:  cpu time    0.0001: real time    0.0001
    CHARGE:  cpu time    0.0856: real time    0.0858
    MIXING:  cpu time    0.0428: real time    0.0429
    --------------------------------------------
      LOOP:  cpu time    2.4165: real time    2.4223

 eigenvalue-minimisations  :    32
 total energy-change (2. order) :-0.5403433E-04  (-0.1042864E-06)
 number of electron       7.9999996 magnetization 
 augmentation part        0.1883018 magnetization 

 Broyden mixing:
  rms(total) = 0.21432E-03    rms(broyden)= 0.21430E-03
  rms(prec ) = 0.38498E-03
  weight for this iteration     100.00

 eigenvalues of (default mixing * dielectric matrix)
  average eigenvalue GAMMA=   2.6429
  8.1458  4.7064  3.9122  2.4546  2.4546  2.0065  1.2995  1.1409  0.9704  0.9704
  1.0103

 Free energy of the ion-electron system (eV)
  ---------------------------------------------------
  alpha Z        PSCENC =         0.24311671
  Ewald energy   TEWEN  =       131.16514931
  -Hartree energ DENC   =      -286.51483517
  -exchange      EXHF   =         0.00000000
  -V(xc)+E(xc)   XCENC  =        24.85348259
  PAW double counting   =       483.45870169     -484.25579027
  entropy T*S    EENTRO =        -0.00000000
  eigenvalues    EBANDS =       -89.91673100
  atomic energy  EATOM  =       197.04175453
  Solvation  Ediel_sol  =         0.00000000
  ---------------------------------------------------
  free energy    TOTEN  =       -23.92515160 eV

  energy without entropy =      -23.92515160  energy(sigma->0) =      -23.92515160


--------------------------------------------------------------------------------------------------------




--------------------------------------- Iteration      1(  17)  ---------------------------------------


    POTLOK:  cpu time    1.4507: real time    1.4541
    SETDIJ:  cpu time    0.0063: real time    0.0063
     EDDAV:  cpu time    0.6573: real time    0.6588
       DOS:  cpu time    0.0001: real time    0.0001
    CHARGE:  cpu time    0.0874: real time    0.0877
    MIXING:  cpu time    0.0412: real time    0.0413
    --------------------------------------------
      LOOP:  cpu time    2.2430: real time    2.2483

 eigenvalue-minimisations  :    24
 total energy-change (2. order) :-0.5382751E-04  (-0.5822162E-06)
 number of electron       7.9999996 magnetization 
 augmentation part        0.1882853 magnetization 

 Broyden mixing:
  rms(total) = 0.17066E-03    rms(broyden)= 0.17060E-03
  rms(prec ) = 0.25563E-03
  weight for this iteration     100.00

 eigenvalues of (default mixing * dielectric matrix)
  average eigenvalue GAMMA=   2.5514
  8.3673  5.1224  3.7390  2.6709  2.3443  1.9150  1.3205  1.2326  1.0000  1.0000
  0.9661  0.9389

 Free energy of the ion-electron system (eV)
  ---------------------------------------------------
  alpha Z        PSCENC =         0.24311671
  Ewald energy   TEWEN  =       131.16514931
  -Hartree energ DENC   =      -286.53837140
  -exchange      EXHF   =         0.00000000
  -V(xc)+E(xc)   XCENC  =        24.85474208
  PAW double counting   =       483.54490437     -484.34207631
  entropy T*S    EENTRO =        -0.00000000
  eigenvalues    EBANDS =       -89.89442472
  atomic energy  EATOM  =       197.04175453
  Solvation  Ediel_sol  =         0.00000000
  ---------------------------------------------------
  free energy    TOTEN  =       -23.92520542 eV

  energy without entropy =      -23.92520542  energy(sigma->0) =      -23.92520542


--------------------------------------------------------------------------------------------------------




--------------------------------------- Iteration      1(  18)  ---------------------------------------


    POTLOK:  cpu time    1.4370: real time    1.4404
    SETDIJ:  cpu time    0.0062: real time    0.0062
     EDDAV:  cpu time    0.8366: real time    0.8386
       DOS:  cpu time    0.0001: real time    0.0001
    CHARGE:  cpu time    0.0803: real time    0.0805
    MIXING:  cpu time    0.0419: real time    0.0420
    --------------------------------------------
      LOOP:  cpu time    2.4020: real time    2.4077

 eigenvalue-minimisations  :    32
 total energy-change (2. order) :-0.2942202E-05  (-0.7754149E-07)
 number of electron       7.9999996 magnetization 
 augmentation part        0.1882938 magnetization 

 Broyden mixing:
  rms(total) = 0.38828E-04    rms(broyden)= 0.38785E-04
  rms(prec ) = 0.72888E-04
  weight for this iteration     100.00

 eigenvalues of (default mixing * dielectric matrix)
  average eigenvalue GAMMA=   2.5457
  8.5122  5.2812  3.8811  2.5498  2.5498  2.1813  1.5163  1.3067  1.3067  0.9804
  0.9804  1.0244  1.0244

 Free energy of the ion-electron system (eV)
  ---------------------------------------------------
  alpha Z        PSCENC =         0.24311671
  Ewald energy   TEWEN  =       131.16514931
  -Hartree energ DENC   =      -286.53110322
  -exchange      EXHF   =         0.00000000
  -V(xc)+E(xc)   XCENC  =        24.85435395
  PAW double counting   =       483.54972003     -484.34684582
  entropy T*S    EENTRO =        -0.00000000
  eigenvalues    EBANDS =       -89.90135386
  atomic energy  EATOM  =       197.04175453
  Solvation  Ediel_sol  =         0.00000000
  ---------------------------------------------------
  free energy    TOTEN  =       -23.92520837 eV

  energy without entropy =      -23.92520837  energy(sigma->0) =      -23.92520837


--------------------------------------------------------------------------------------------------------




--------------------------------------- Iteration      1(  19)  ---------------------------------------


    POTLOK:  cpu time    1.4633: real time    1.4667
    SETDIJ:  cpu time    0.0062: real time    0.0062
     EDDAV:  cpu time    0.4689: real time    0.4700
       DOS:  cpu time    0.0001: real time    0.0001
    CHARGE:  cpu time    0.0857: real time    0.0859
    MIXING:  cpu time    0.0429: real time    0.0430
    --------------------------------------------
      LOOP:  cpu time    2.0671: real time    2.0720

 eigenvalue-minimisations  :    16
 total energy-change (2. order) :-0.3991067E-05  (-0.1042406E-07)
 number of electron       7.9999996 magnetization 
 augmentation part        0.1882936 magnetization 

 Broyden mixing:
  rms(total) = 0.16711E-04    rms(broyden)= 0.16708E-04
  rms(prec ) = 0.36577E-04
  weight for this iteration     100.00

 eigenvalues of (default mixing * dielectric matrix)
  average eigenvalue GAMMA=   2.5433
  8.5674  5.4348  4.0468  3.1698  2.5688  2.2961  1.9610  1.3013  1.1916  1.0019
  0.9911  0.9911  1.0425  1.0425

 Free energy of the ion-electron system (eV)
  ---------------------------------------------------
  alpha Z        PSCENC =         0.24311671
  Ewald energy   TEWEN  =       131.16514931
  -Hartree energ DENC   =      -286.53090255
  -exchange      EXHF   =         0.00000000
  -V(xc)+E(xc)   XCENC  =        24.85430856
  PAW double counting   =       483.56342691     -484.36054390
  entropy T*S    EENTRO =        -0.00000000
  eigenvalues    EBANDS =       -89.90152192
  atomic energy  EATOM  =       197.04175453
  Solvation  Ediel_sol  =         0.00000000
  ---------------------------------------------------
  free energy    TOTEN  =       -23.92521236 eV

  energy without entropy =      -23.92521236  energy(sigma->0) =      -23.92521236


--------------------------------------------------------------------------------------------------------




--------------------------------------- Iteration      1(  20)  ---------------------------------------


    POTLOK:  cpu time    1.4519: real time    1.4553
    SETDIJ:  cpu time    0.0062: real time    0.0062
     EDDAV:  cpu time    0.6275: real time    0.6290
       DOS:  cpu time    0.0001: real time    0.0001
    --------------------------------------------
      LOOP:  cpu time    2.0857: real time    2.0906

 eigenvalue-minimisations  :    24
 total energy-change (2. order) :-0.8758255E-06  (-0.4288012E-08)
 number of electron       7.9999996 magnetization 
 augmentation part        0.1882936 magnetization 

 Free energy of the ion-electron system (eV)
  ---------------------------------------------------
  alpha Z        PSCENC =         0.24311671
  Ewald energy   TEWEN  =       131.16514931
  -Hartree energ DENC   =      -286.52969914
  -exchange      EXHF   =         0.00000000
  -V(xc)+E(xc)   XCENC  =        24.85423334
  PAW double counting   =       483.55950928     -484.35662134
  entropy T*S    EENTRO =        -0.00000000
  eigenvalues    EBANDS =       -89.90265593
  atomic energy  EATOM  =       197.04175453
  Solvation  Ediel_sol  =         0.00000000
  ---------------------------------------------------
  free energy    TOTEN  =       -23.92521323 eV

  energy without entropy =      -23.92521323  energy(sigma->0) =      -23.92521323


--------------------------------------------------------------------------------------------------------




 average (electrostatic) potential at core
  the test charge radii are     0.5201  0.6991
  (the norm of the test charge is              1.0000)
       1 -41.9492       2 -41.7349       3 -41.2177       4 -41.4328       5 -57.9110



 E-fermi :  -8.7503     XC(G=0):  -0.6959     alpha+bet : -0.2114


 k-point     1 :       0.0000    0.0000    0.0000
  band No.  band energies     occupation 
      1     -16.9775      2.00000
      2      -9.7497      2.00000
      3      -9.2068      2.00000
      4      -9.0173      2.00000
      5      -0.5224      0.00000
      6       0.9796      0.00000
      7       0.9997      0.00000
      8       1.0556      0.00000


--------------------------------------------------------------------------------------------------------


 soft charge-density along one line, spin component           1
         0         1         2         3         4         5         6         7         8         9
 total charge-density along one line

 pseudopotential strength for first ion, spin component:           1
 -2.345  -4.042  -0.001  -0.001  -0.001
 -4.042  -6.881  -0.002  -0.005  -0.004
 -0.001  -0.002  -0.335   0.001   0.001
 -0.001  -0.005   0.001  -0.333   0.003
 -0.001  -0.004   0.001   0.003  -0.334
 total augmentation occupancy for first ion, spin component:           1
  3.710  -0.657   0.153   0.364   0.295
 -0.657   0.131  -0.028  -0.065  -0.054
  0.153  -0.028   0.016   0.013   0.010
  0.364  -0.065   0.013   0.041   0.024
  0.295  -0.054   0.010   0.024   0.031


------------------------ aborting loop because EDIFF is reached ----------------------------------------


    CHARGE:  cpu time    0.0810: real time    0.0812
    FORLOC:  cpu time    0.1046: real time    0.1049
    FORNL :  cpu time    0.1594: real time    0.1597
    STRESS:  cpu time    0.5849: real time    0.5863
    FORCOR:  cpu time    1.5071: real time    1.5107
    FORHAR:  cpu time    0.4667: real time    0.4678
    MIXING:  cpu time    0.0429: real time    0.0431
    OFIELD:  cpu time    0.0000: real time    0.0000

  FORCE on cell =-STRESS in cart. coord.  units (eV):
  Direction    XX          YY          ZZ          XY          YZ          ZX
  --------------------------------------------------------------------------------------
  Alpha Z     0.24312     0.24312     0.24312
  Ewald      41.34589    43.73272    46.08652    -3.53693     0.72592     5.00570
  Hartree    94.70242    98.60389    93.22489    -1.70205     0.62299     0.64126
  E(xc)     -27.34370   -27.33504   -27.31899    -0.02608     0.00653     0.01470
  Local    -195.02617  -202.11304  -196.31880     5.00965    -1.42555    -4.21703
  n-local   -16.20064   -16.03092   -16.24412    -0.06420     0.04323    -0.04384
  augment     0.11299     0.12155     0.09528    -0.00032     0.00119    -0.01349
  Kinetic   102.57515   101.91944   101.24880     1.26746    -0.36593    -0.83270
  Fock        0.00000     0.00000     0.00000     0.00000     0.00000     0.00000
  -------------------------------------------------------------------------------------
  Total       0.40906    -0.85828     1.01669     0.94753    -0.39161     0.55460
  in kB       0.65772    -1.38004     1.63474     1.52353    -0.62968     0.89174
  external pressure =        0.30 kB  Pullay stress =        0.00 kB


 VOLUME and BASIS-vectors are now :
 -----------------------------------------------------------------------------
  energy-cutoff  :      400.00
  volume of cell :      996.44
      direct lattice vectors                 reciprocal lattice vectors
    10.006619500  0.000000000  0.000000000     0.099933849  0.002269562  0.000748798
    -0.221244500  9.741885200  0.000000000     0.000000000  0.102649536 -0.002424515
    -0.082073000  0.241428100 10.221626300     0.000000000 -0.000000000  0.097831790

  length of vectors
    10.006619500  9.744397179 10.224806488     0.099962422  0.102678165  0.097831790


 FORCES acting on ions
    electron-ion (+dipol)            ewald-force                    non-local-force                 convergence-correction
 -----------------------------------------------------------------------------------------------
   0.334E+02 0.172E+02 0.403E+02   -.384E+02 -.198E+02 -.460E+02   0.374E+01 0.192E+01 0.467E+01   -.553E-04 -.532E-04 -.112E-03
   0.153E+01 0.294E+02 -.456E+02   -.202E+01 -.332E+02 0.514E+02   0.176E-01 0.317E+01 -.501E+01   0.140E-04 -.761E-04 0.106E-03
   0.107E+02 -.488E+02 -.116E+02   -.115E+02 0.526E+02 0.125E+02   0.101E+01 -.473E+01 -.114E+01   -.948E-05 0.102E-03 0.267E-04
   -.500E+02 0.403E+01 0.174E+02   0.552E+02 -.423E+01 -.193E+02   -.514E+01 0.462E+00 0.174E+01   0.112E-03 -.215E-04 -.487E-04
   0.342E+01 -.363E+01 -.102E+01   -.329E+01 0.466E+01 0.140E+01   0.124E+01 0.104E+01 0.323E+00   0.155E-03 -.109E-03 -.620E-04
 -----------------------------------------------------------------------------------------------
   -.871E+00 -.186E+01 -.584E+00   -.711E-14 -.178E-14 0.355E-14   0.871E+00 0.186E+01 0.584E+00   0.216E-03 -.158E-03 -.898E-04


 POSITION                                       TOTAL-FORCE (eV/Angst)
 -----------------------------------------------------------------------------------
      4.24777      4.33698      3.76962        -1.229681     -0.698378     -1.018653
      4.85753      4.08688      5.43726        -0.476535     -0.654446      0.739646
      4.65045      5.74507      4.79613         0.262523     -0.981091     -0.292169
      5.91493      4.58195      4.18257         0.072484      0.266293     -0.129632
      4.87993      4.66506      4.53913         1.371210      2.067622      0.700808
 -----------------------------------------------------------------------------------
    total drift:                               -0.000262      0.000035     -0.000157


--------------------------------------------------------------------------------------------------------



  FREE ENERGIE OF THE ION-ELECTRON SYSTEM (eV)
  ---------------------------------------------------
  free  energy   TOTEN  =       -23.92521323 eV

  energy  without entropy=      -23.92521323  energy(sigma->0) =      -23.92521323



--------------------------------------------------------------------------------------------------------


    POTLOK:  cpu time    1.4002: real time    1.4036


--------------------------------------------------------------------------------------------------------


     LOOP+:  cpu time   44.6154: real time   44.7383
    4ORBIT:  cpu time    0.0000: real time    0.0000

 total amount of memory used by VASP MPI-rank0   274697. kBytes
=======================================================================

   base      :      30000. kBytes
   nonlr-proj:       1237. kBytes
   fftplans  :      86584. kBytes
   grid      :     154542. kBytes
   one-center:         15. kBytes
   wavefun   :       2319. kBytes

  
  
 General timing and accounting informations for this job:
 ========================================================
  
                  Total CPU time used (sec):       46.412
                            User time (sec):       44.996
                          System time (sec):        1.416
                         Elapsed time (sec):       46.552
  
                   Maximum memory used (kb):      390752.
                   Average memory used (kb):           0.
  
                          Minor page faults:       227042
                          Major page faults:            0
                 Voluntary context switches:          145
