 vasp.5.4.4.18Apr17-6-g9f103f2a35 (build Jul 12 2018 13:43:46) complex           
 executed on             LinuxGNU date 2019.06.25  21:09:33
 running on    1 total cores
 distrk:  each k-point on    1 cores,    1 groups
 distr:  one band on NCORES_PER_BAND=   1 cores,    1 groups


--------------------------------------------------------------------------------------------------------


 INCAR:
 POTCAR:    PAW_PBE H 15Jun2001                   
 POTCAR:    PAW_PBE C 08Apr2002                   
 POTCAR:    PAW_PBE H 15Jun2001                   
   VRHFIN =H: ultrasoft test                                                    
   LEXCH  = PE                                                                  
   EATOM  =    12.4884 eV,    0.9179 Ry                                         
                                                                                
   TITEL  = PAW_PBE H 15Jun2001                                                 
   LULTRA =        F    use ultrasoft PP ?                                      
   IUNSCR =        0    unscreen: 0-lin 1-nonlin 2-no                           
   RPACOR =    0.000    partial core radius                                     
   POMASS =    1.000; ZVAL   =    1.000    mass and valenz                      
   RCORE  =    1.100    outmost cutoff radius                                   
   RWIGS  =    0.700; RWIGS  =    0.370    wigner-seitz radius (au A)           
   ENMAX  =  250.000; ENMIN  =  200.000 eV                                      
   RCLOC  =    0.701    cutoff for local pot                                    
   LCOR   =        T    correct aug charges                                     
   LPAW   =        T    paw PP                                                  
   EAUG   =  400.000                                                            
   RMAX   =    1.123    core radius for proj-oper                               
   RAUG   =    1.200    factor for augmentation sphere                          
   RDEP   =    1.112    radius for radial grids                                 
   RDEPT  =    0.926    core radius for aug-charge                              
                                                                                
   Atomic configuration                                                         
    2 entries                                                                   
     n  l   j            E        occ.                                          
     1  0  0.50        -6.4927   1.0000                                         
     2  1  0.50        -3.4015   0.0000                                         
   Description                                                                  
     l       E           TYP  RCUT    TYP  RCUT                                 
     0     -6.4927494     23  1.100                                             
     0      6.8029130     23  1.100                                             
     1     -4.0817478     23  1.100                                             
  local pseudopotential read in
  atomic valenz-charges read in
  non local Contribution for L=           0  read in
    real space projection operators read in
  non local Contribution for L=           0  read in
    real space projection operators read in
  non local Contribution for L=           1  read in
    real space projection operators read in
    PAW grid and wavefunctions read in

   number of l-projection  operators is LMAX  =           3
   number of lm-projection operators is LMMAX =           5

 POTCAR:    PAW_PBE C 08Apr2002                   
   VRHFIN =C: s2p2                                                              
   LEXCH  = PE                                                                  
   EATOM  =   147.1560 eV,   10.8157 Ry                                         
                                                                                
   TITEL  = PAW_PBE C 08Apr2002                                                 
   LULTRA =        F    use ultrasoft PP ?                                      
   IUNSCR =        1    unscreen: 0-lin 1-nonlin 2-no                           
   RPACOR =    1.200    partial core radius                                     
   POMASS =   12.011; ZVAL   =    4.000    mass and valenz                      
   RCORE  =    1.500    outmost cutoff radius                                   
   RWIGS  =    1.630; RWIGS  =    0.863    wigner-seitz radius (au A)           
   ENMAX  =  400.000; ENMIN  =  300.000 eV                                      
   ICORE  =        2    local potential                                         
   LCOR   =        T    correct aug charges                                     
   LPAW   =        T    paw PP                                                  
   EAUG   =  644.873                                                            
   DEXC   =    0.000                                                            
   RMAX   =    1.529    core radius for proj-oper                               
   RAUG   =    1.300    factor for augmentation sphere                          
   RDEP   =    1.501    radius for radial grids                                 
   RDEPT  =    1.300    core radius for aug-charge                              
                                                                                
   Atomic configuration                                                         
    4 entries                                                                   
     n  l   j            E        occ.                                          
     1  0  0.50      -273.3789   2.0000                                         
     2  0  0.50       -13.7508   2.0000                                         
     2  1  0.50        -5.2854   2.0000                                         
     3  2  1.50        -5.4423   0.0000                                         
   Description                                                                  
     l       E           TYP  RCUT    TYP  RCUT                                 
     0    -13.7508458     23  1.200                                             
     0     -8.2022199     23  1.200                                             
     1     -5.2854383     23  1.500                                             
     1     34.0145650     23  1.500                                             
     2     -5.4423304      7  1.500                                             
  local pseudopotential read in
  partial core-charges read in
  partial kinetic energy density read in
  atomic valenz-charges read in
  non local Contribution for L=           0  read in
    real space projection operators read in
  non local Contribution for L=           0  read in
    real space projection operators read in
  non local Contribution for L=           1  read in
    real space projection operators read in
  non local Contribution for L=           1  read in
    real space projection operators read in
    PAW grid and wavefunctions read in

   number of l-projection  operators is LMAX  =           4
   number of lm-projection operators is LMMAX =           8


 ----------------------------------------------------------------------------- 
|                                                                             |
|  ADVICE TO THIS USER RUNNING 'VASP/VAMP'   (HEAR YOUR MASTER'S VOICE ...):  |
|                                                                             |
|      You have a (more or less) 'small supercell' and for smaller cells      |
|      it is recommended  to use the reciprocal-space projection scheme!      |
|      The real space optimization is not  efficient for small cells and it   |
|      is also less accurate ...                                              |
|      Therefore set LREAL=.FALSE. in the  INCAR file                         |
|                                                                             |
 ----------------------------------------------------------------------------- 

 Optimization of the real space projectors (new method)

 maximal supplied QI-value         = 34.20
 optimisation between [QCUT,QGAM] = [  9.92, 20.18] = [ 27.55,114.04] Ry 
 Optimized for a Real-space Cutoff    1.34 Angstroem

   l    n(q)    QCUT    max X(q) W(low)/X(q) W(high)/X(q)  e(spline) 
   0      8     9.919    19.460    0.16E-03    0.20E-03    0.36E-06
   0      8     9.919    12.209    0.16E-03    0.20E-03    0.35E-06
   1      8     9.919     4.655    0.19E-03    0.46E-03    0.40E-06
 Optimization of the real space projectors (new method)

 maximal supplied QI-value         = 25.13
 optimisation between [QCUT,QGAM] = [ 10.05, 20.36] = [ 28.30,116.06] Ry 
 Optimized for a Real-space Cutoff    1.51 Angstroem

   l    n(q)    QCUT    max X(q) W(low)/X(q) W(high)/X(q)  e(spline) 
   0      9    10.053   115.676    0.19E-03    0.21E-03    0.38E-06
   0      9    10.053    87.132    0.19E-03    0.21E-03    0.38E-06
   1      9    10.053     4.429    0.87E-04    0.11E-03    0.39E-06
   1      9    10.053     2.733    0.59E-04    0.62E-04    0.43E-06
  PAW_PBE H 15Jun2001                   :
 energy of atom  1       EATOM=  -12.4884
 kinetic energy error for atom=    0.0098 (will be added to EATOM!!)
  PAW_PBE C 08Apr2002                   :
 energy of atom  2       EATOM= -147.1560
 kinetic energy error for atom=    0.0288 (will be added to EATOM!!)


 POSCAR: POSCAR file written by OVITO            
  positions in cartesian coordinates
  No initial velocities read in
 exchange correlation table for  LEXCH =        8
   RHO(1)=    0.500       N(1)  =     2000
   RHO(2)=  100.500       N(2)  =     4000



--------------------------------------------------------------------------------------------------------


 ion  position               nearest neighbor table
   1  0.475  0.435  0.346-   5 1.11
   2  0.424  0.430  0.511-   5 1.10
   3  0.499  0.583  0.434-   5 1.12
   4  0.601  0.421  0.466-   5 1.11
   5  0.504  0.469  0.446-   2 1.10   4 1.11   1 1.11   3 1.12


IMPORTANT INFORMATION: All symmetrisations will be switched off!
NOSYMM: (Re-)initialisation of all symmetry stuff for point group C_1.




Automatic generation of k-mesh.
 generate k-points for:    1    1    1
Space group operators:
 irot       det(A)        alpha          n_x          n_y          n_z        tau_x        tau_y        tau_z
    1     1.000000     0.000000     1.000000     0.000000     0.000000     0.000000     0.000000     0.000000
 
 Subroutine IBZKPT returns following result:
 ===========================================
 
 Found      1 irreducible k-points:
 
 Following reciprocal coordinates:
            Coordinates               Weight
  0.000000  0.000000  0.000000      1.000000
 
 Following cartesian coordinates:
            Coordinates               Weight
  0.000000  0.000000  0.000000      1.000000
 


--------------------------------------------------------------------------------------------------------




 Dimension of arrays:
   k-points           NKPTS =      1   k-points in BZ     NKDIM =      1   number of bands    NBANDS=      8
   number of dos      NEDOS =    301   number of ions     NIONS =      5
   non local maximal  LDIM  =      4   non local SUM 2l+1 LMDIM =      8
   total plane-waves  NPLWV = 313600
   max r-space proj   IRMAX =   4575   max aug-charges    IRDMAX=   3913
   dimension x,y,z NGX =    70 NGY =   64 NGZ =   70
   dimension x,y,z NGXF=   140 NGYF=  128 NGZF=  140
   support grid    NGXF=   140 NGYF=  128 NGZF=  140
   ions per type =               4   1
   NGX,Y,Z   is equivalent  to a cutoff of  11.63, 10.92, 11.38 a.u.
   NGXF,Y,Z  is equivalent  to a cutoff of  23.26, 21.84, 22.76 a.u.

 SYSTEM =  unknown system                          
 POSCAR =  POSCAR file written by OVITO            

 Startparameter for this run:
   NWRITE =      2    write-flag & timer
   PREC   = a         normal or accurate (medium, high low for compatibility)
   ISTART =      0    job   : 0-new  1-cont  2-samecut
   ICHARG =      2    charge: 1-file 2-atom 10-const
   ISPIN  =      1    spin polarized calculation?
   LNONCOLLINEAR =      F non collinear calculations
   LSORBIT =      F    spin-orbit coupling
   INIWAV =      1    electr: 0-lowe 1-rand  2-diag
   LASPH  =      F    aspherical Exc in radial PAW
   METAGGA=      F    non-selfconsistent MetaGGA calc.

 Electronic Relaxation 1
   ENCUT  =  400.0 eV  29.40 Ry    5.42 a.u.  16.32 15.89 16.67*2*pi/ulx,y,z
   ENINI  =  400.0     initial cutoff
   ENAUG  =  644.9 eV  augmentation charge cutoff
   NELM   =    120;   NELMIN=  4; NELMDL= -5     # of ELM steps 
   EDIFF  = 0.1E-05   stopping-criterion for ELM
   LREAL  =      T    real-space projection
   NLSPLINE    = F    spline interpolate recip. space projectors
   LCOMPAT=      F    compatible to vasp.4.4
   GGA_COMPAT  = T    GGA compatible to vasp.4.4-vasp.4.6
   LMAXPAW     = -100 max onsite density
   LMAXMIX     =    2 max onsite mixed and CHGCAR
   VOSKOWN=      0    Vosko Wilk Nusair interpolation
   ROPT   =   -0.00025  -0.00025
 Ionic relaxation
   EDIFFG = 0.1E-04   stopping-criterion for IOM
   NSW    =      0    number of steps for IOM
   NBLOCK =      1;   KBLOCK =      1    inner block; outer block 
   IBRION =     -1    ionic relax: 0-MD 1-quasi-New 2-CG
   NFREE  =      0    steps in history (QN), initial steepest desc. (CG)
   ISIF   =      2    stress and relaxation
   IWAVPR =     10    prediction:  0-non 1-charg 2-wave 3-comb
   ISYM   =      0    0-nonsym 1-usesym 2-fastsym
   LCORR  =      T    Harris-Foulkes like correction to forces

   POTIM  = 0.5000    time-step for ionic-motion
   TEIN   =    0.0    initial temperature
   TEBEG  =    0.0;   TEEND  =   0.0 temperature during run
   SMASS  =  -3.00    Nose mass-parameter (am)
   estimated Nose-frequenzy (Omega)   =  0.10E-29 period in steps =****** mass=  -0.229E-26a.u.
   SCALEE = 1.0000    scale energy and forces
   NPACO  =    256;   APACO  = 16.0  distance and # of slots for P.C.
   PSTRESS=    0.0 pullay stress

  Mass of Ions in am
   POMASS =   1.00 12.01
  Ionic Valenz
   ZVAL   =   1.00  4.00
  Atomic Wigner-Seitz radii
   RWIGS  =  -1.00 -1.00
  virtual crystal weights 
   VCA    =   1.00  1.00
   NELECT =       8.0000    total number of electrons
   NUPDOWN=      -1.0000    fix difference up-down

 DOS related values:
   EMIN   =  10.00;   EMAX   =-10.00  energy-range for DOS
   EFERMI =   0.00
   ISMEAR =     0;   SIGMA  =   0.05  broadening in eV -4-tet -1-fermi 0-gaus

 Electronic relaxation 2 (details)
   IALGO  =     38    algorithm
   LDIAG  =      T    sub-space diagonalisation (order eigenvalues)
   LSUBROT=      F    optimize rotation matrix (better conditioning)
   TURBO    =      0    0=normal 1=particle mesh
   IRESTART =      0    0=no restart 2=restart with 2 vectors
   NREBOOT  =      0    no. of reboots
   NMIN     =      0    reboot dimension
   EREF     =   0.00    reference energy to select bands
   IMIX   =      4    mixing-type and parameters
     AMIX     =   0.40;   BMIX     =  1.00
     AMIX_MAG =   1.60;   BMIX_MAG =  1.00
     AMIN     =   0.10
     WC   =   100.;   INIMIX=   1;  MIXPRE=   1;  MAXMIX= -45

 Intra band minimization:
   WEIMIN = 0.0000     energy-eigenvalue tresh-hold
   EBREAK =  0.31E-07  absolut break condition
   DEPER  =   0.30     relativ break condition  

   TIME   =   0.40     timestep for ELM

  volume/ion in A,a.u.               =     199.29      1344.86
  Fermi-wavevector in a.u.,A,eV,Ry     =   0.327809  0.619470  1.462068  0.107459
  Thomas-Fermi vector in A             =   1.220856

 Write flags
   LWAVE        =      F    write WAVECAR
   LDOWNSAMPLE  =      F    k-point downsampling of WAVECAR
   LCHARG       =      F    write CHGCAR
   LVTOT        =      F    write LOCPOT, total local potential
   LVHAR        =      F    write LOCPOT, Hartree potential only
   LELF         =      F    write electronic localiz. function (ELF)
   LORBIT       =      0    0 simple, 1 ext, 2 COOP (PROOUT), +10 PAW based schemes


 Dipole corrections
   LMONO  =      F    monopole corrections only (constant potential shift)
   LDIPOL =      F    correct potential (dipole corrections)
   IDIPOL =      0    1-x, 2-y, 3-z, 4-all directions 
   EPSILON=  1.0000000 bulk dielectric constant

 Exchange correlation treatment:
   GGA     =    --    GGA type
   LEXCH   =     8    internal setting for exchange type
   VOSKOWN=      0    Vosko Wilk Nusair interpolation
   LHFCALC =     F    Hartree Fock is set to
   LHFONE  =     F    Hartree Fock one center treatment
   AEXX    =    0.0000 exact exchange contribution

 Linear response parameters
   LEPSILON=     F    determine dielectric tensor
   LRPA    =     F    only Hartree local field effects (RPA)
   LNABLA  =     F    use nabla operator in PAW spheres
   LVEL    =     F    velocity operator in full k-point grid
   LINTERFAST=   F  fast interpolation
   KINTER  =     0    interpolate to denser k-point grid
   CSHIFT  =0.1000    complex shift for real part using Kramers Kronig
   OMEGAMAX=  -1.0    maximum frequency
   DEG_THRESHOLD= 0.2000000E-02 threshold for treating states as degnerate
   RTIME   =   -0.100 relaxation time in fs
  (WPLASMAI=    0.000 imaginary part of plasma frequency in eV, 0.658/RTIME)
   DFIELD  = 0.0000000 0.0000000 0.0000000 field for delta impulse in time

 Orbital magnetization related:
   ORBITALMAG=     F  switch on orbital magnetization
   LCHIMAG   =     F  perturbation theory with respect to B field
   DQ        =  0.001000  dq finite difference perturbation B field
   LLRAUG    =     F  two centre corrections for induced B field



--------------------------------------------------------------------------------------------------------


 Static calculation
 charge density and potential will be updated during run
 non-spin polarized calculation
 Variant of blocked Davidson
 Davidson routine will perform the subspace rotation
 perform sub-space diagonalisation
    after iterative eigenvector-optimisation
 modified Broyden-mixing scheme, WC =      100.0
 initial mixing is a Kerker type mixing with AMIX =  0.4000 and BMIX =      1.0000
 Hartree-type preconditioning will be used
 using additional bands            4
 real space projection scheme for non local part
 use partial core corrections
 calculate Harris-corrections to forces   (improved forces if not selfconsistent)
 use gradient corrections 
 use of overlap-Matrix (Vanderbilt PP)
 Gauss-broadening in eV      SIGMA  =   0.05


--------------------------------------------------------------------------------------------------------


  energy-cutoff  :      400.00
  volume of cell :      996.44
      direct lattice vectors                 reciprocal lattice vectors
    10.006619500  0.000000000  0.000000000     0.099933849  0.002269562  0.000748798
    -0.221244500  9.741885200  0.000000000     0.000000000  0.102649536 -0.002424515
    -0.082073000  0.241428100 10.221626300     0.000000000 -0.000000000  0.097831790

  length of vectors
    10.006619500  9.744397179 10.224806488     0.099962422  0.102678165  0.097831790



 k-points in units of 2pi/SCALE and weight: read from INCAR                         
   0.00000000  0.00000000  0.00000000       1.000

 k-points in reciprocal lattice and weights: read from INCAR                         
   0.00000000  0.00000000  0.00000000       1.000

 position of ions in fractional coordinates (direct lattice) 
   0.47455967  0.43507480  0.34615431
   0.42362333  0.43044383  0.51069271
   0.49887838  0.58332071  0.43448372
   0.60130306  0.42127835  0.46562454
   0.50362106  0.46874115  0.44591927

 position of ions in cartesian coordinates  (Angst):
   4.62407020  4.32202010  3.53826000
   4.10189010  4.31662990  5.22011000
   4.82737020  5.78754000  4.44113020
   5.88559020  4.21646020  4.75944000
   4.89924000  4.67407990  4.55802010



--------------------------------------------------------------------------------------------------------


 k-point  1 :   0.0000 0.0000 0.0000  plane waves:   18093

 maximum and minimum number of plane-waves per node :     18093    18093

 maximum number of plane-waves:     18093
 maximum index in each direction: 
   IXMAX=   16   IYMAX=   15   IZMAX=   16
   IXMIN=  -16   IYMIN=  -15   IZMIN=  -16


 serial   3D FFT for wavefunctions
 parallel 3D FFT for charge:
    minimum data exchange during FFTs selected (reduces bandwidth)


 total amount of memory used by VASP MPI-rank0   274696. kBytes
=======================================================================

   base      :      30000. kBytes
   nonlr-proj:       1236. kBytes
   fftplans  :      86584. kBytes
   grid      :     154542. kBytes
   one-center:         15. kBytes
   wavefun   :       2319. kBytes

     INWAV:  cpu time    0.0000: real time    0.0000
 Broyden mixing: mesh for mixing (old mesh)
   NGX = 33   NGY = 31   NGZ = 33
  (NGX  =140   NGY  =128   NGZ  =140)
  gives a total of  33759 points

 initial charge density was supplied:
 charge density of overlapping atoms calculated
 number of electron       8.0000000 magnetization 
 keeping initial charge density in first step


--------------------------------------------------------------------------------------------------------


 Maximum index for non-local projection operator         4391
 Maximum index for augmentation-charges         3599 (set IRDMAX)


--------------------------------------------------------------------------------------------------------


 First call to EWALD:  gamma=   0.177
 Maximum number of real-space cells 3x 3x 3
 Maximum number of reciprocal cells 3x 3x 3

    FEWALD:  cpu time    0.0007: real time    0.0007


--------------------------------------- Iteration      1(   1)  ---------------------------------------


    POTLOK:  cpu time    1.5754: real time    1.5793
    SETDIJ:  cpu time    0.0065: real time    0.0065
     EDDAV:  cpu time    0.4357: real time    0.4368
       DOS:  cpu time    0.0001: real time    0.0001
    --------------------------------------------
      LOOP:  cpu time    2.0177: real time    2.0228

 eigenvalue-minimisations  :    16
 total energy-change (2. order) : 0.6241153E+02  (-0.1500738E+03)
 number of electron       8.0000000 magnetization 
 augmentation part        8.0000000 magnetization 

 Free energy of the ion-electron system (eV)
  ---------------------------------------------------
  alpha Z        PSCENC =         0.24311671
  Ewald energy   TEWEN  =       125.97754282
  -Hartree energ DENC   =      -242.58168992
  -exchange      EXHF   =         0.00000000
  -V(xc)+E(xc)   XCENC  =        21.94657754
  PAW double counting   =       117.05815612     -117.66307307
  entropy T*S    EENTRO =        -0.00000000
  eigenvalues    EBANDS =       -39.61085008
  atomic energy  EATOM  =       197.04175453
  Solvation  Ediel_sol  =         0.00000000
  ---------------------------------------------------
  free energy    TOTEN  =        62.41153466 eV

  energy without entropy =       62.41153466  energy(sigma->0) =       62.41153466


--------------------------------------------------------------------------------------------------------




--------------------------------------- Iteration      1(   2)  ---------------------------------------


     EDDAV:  cpu time    0.7921: real time    0.7941
       DOS:  cpu time    0.0001: real time    0.0001
    --------------------------------------------
      LOOP:  cpu time    0.7922: real time    0.7942

 eigenvalue-minimisations  :    32
 total energy-change (2. order) :-0.7651516E+02  (-0.7651516E+02)
 number of electron       8.0000000 magnetization 
 augmentation part        8.0000000 magnetization 

 Free energy of the ion-electron system (eV)
  ---------------------------------------------------
  alpha Z        PSCENC =         0.24311671
  Ewald energy   TEWEN  =       125.97754282
  -Hartree energ DENC   =      -242.58168992
  -exchange      EXHF   =         0.00000000
  -V(xc)+E(xc)   XCENC  =        21.94657754
  PAW double counting   =       117.05815612     -117.66307307
  entropy T*S    EENTRO =        -0.00000000
  eigenvalues    EBANDS =      -116.12600568
  atomic energy  EATOM  =       197.04175453
  Solvation  Ediel_sol  =         0.00000000
  ---------------------------------------------------
  free energy    TOTEN  =       -14.10362093 eV

  energy without entropy =      -14.10362093  energy(sigma->0) =      -14.10362093


--------------------------------------------------------------------------------------------------------




--------------------------------------- Iteration      1(   3)  ---------------------------------------


     EDDAV:  cpu time    0.4596: real time    0.4607
       DOS:  cpu time    0.0001: real time    0.0001
    --------------------------------------------
      LOOP:  cpu time    0.4597: real time    0.4608

 eigenvalue-minimisations  :    16
 total energy-change (2. order) :-0.1251435E+02  (-0.1251435E+02)
 number of electron       8.0000000 magnetization 
 augmentation part        8.0000000 magnetization 

 Free energy of the ion-electron system (eV)
  ---------------------------------------------------
  alpha Z        PSCENC =         0.24311671
  Ewald energy   TEWEN  =       125.97754282
  -Hartree energ DENC   =      -242.58168992
  -exchange      EXHF   =         0.00000000
  -V(xc)+E(xc)   XCENC  =        21.94657754
  PAW double counting   =       117.05815612     -117.66307307
  entropy T*S    EENTRO =        -0.00000000
  eigenvalues    EBANDS =      -128.64035430
  atomic energy  EATOM  =       197.04175453
  Solvation  Ediel_sol  =         0.00000000
  ---------------------------------------------------
  free energy    TOTEN  =       -26.61796955 eV

  energy without entropy =      -26.61796955  energy(sigma->0) =      -26.61796955


--------------------------------------------------------------------------------------------------------




--------------------------------------- Iteration      1(   4)  ---------------------------------------


     EDDAV:  cpu time    0.8062: real time    0.8081
       DOS:  cpu time    0.0001: real time    0.0001
    --------------------------------------------
      LOOP:  cpu time    0.8063: real time    0.8082

 eigenvalue-minimisations  :    32
 total energy-change (2. order) :-0.6575774E+00  (-0.6575774E+00)
 number of electron       8.0000000 magnetization 
 augmentation part        8.0000000 magnetization 

 Free energy of the ion-electron system (eV)
  ---------------------------------------------------
  alpha Z        PSCENC =         0.24311671
  Ewald energy   TEWEN  =       125.97754282
  -Hartree energ DENC   =      -242.58168992
  -exchange      EXHF   =         0.00000000
  -V(xc)+E(xc)   XCENC  =        21.94657754
  PAW double counting   =       117.05815612     -117.66307307
  entropy T*S    EENTRO =        -0.00000000
  eigenvalues    EBANDS =      -129.29793167
  atomic energy  EATOM  =       197.04175453
  Solvation  Ediel_sol  =         0.00000000
  ---------------------------------------------------
  free energy    TOTEN  =       -27.27554692 eV

  energy without entropy =      -27.27554692  energy(sigma->0) =      -27.27554692


--------------------------------------------------------------------------------------------------------




--------------------------------------- Iteration      1(   5)  ---------------------------------------


     EDDAV:  cpu time    0.6143: real time    0.6158
       DOS:  cpu time    0.0001: real time    0.0001
    CHARGE:  cpu time    0.0934: real time    0.0936
    MIXING:  cpu time    0.0353: real time    0.0354
    --------------------------------------------
      LOOP:  cpu time    0.7431: real time    0.7449

 eigenvalue-minimisations  :    24
 total energy-change (2. order) :-0.3242500E-03  (-0.3242502E-03)
 number of electron       8.0000001 magnetization 
 augmentation part        0.2206928 magnetization 

 Broyden mixing:
  rms(total) = 0.84839E+00    rms(broyden)= 0.84815E+00
  rms(prec ) = 0.12005E+01
  weight for this iteration     100.00

 Free energy of the ion-electron system (eV)
  ---------------------------------------------------
  alpha Z        PSCENC =         0.24311671
  Ewald energy   TEWEN  =       125.97754282
  -Hartree energ DENC   =      -242.58168992
  -exchange      EXHF   =         0.00000000
  -V(xc)+E(xc)   XCENC  =        21.94657754
  PAW double counting   =       117.05815612     -117.66307307
  entropy T*S    EENTRO =        -0.00000000
  eigenvalues    EBANDS =      -129.29825592
  atomic energy  EATOM  =       197.04175453
  Solvation  Ediel_sol  =         0.00000000
  ---------------------------------------------------
  free energy    TOTEN  =       -27.27587117 eV

  energy without entropy =      -27.27587117  energy(sigma->0) =      -27.27587117


--------------------------------------------------------------------------------------------------------




--------------------------------------- Iteration      1(   6)  ---------------------------------------


    POTLOK:  cpu time    1.6178: real time    1.6217
    SETDIJ:  cpu time    0.0065: real time    0.0065
     EDDAV:  cpu time    0.6219: real time    0.6234
       DOS:  cpu time    0.0001: real time    0.0001
    CHARGE:  cpu time    0.0868: real time    0.0870
    MIXING:  cpu time    0.0339: real time    0.0340
    --------------------------------------------
      LOOP:  cpu time    2.3671: real time    2.3727

 eigenvalue-minimisations  :    24
 total energy-change (2. order) : 0.2745866E+01  (-0.8552076E+00)
 number of electron       8.0000001 magnetization 
 augmentation part        0.1932792 magnetization 

 Broyden mixing:
  rms(total) = 0.43385E+00    rms(broyden)= 0.43373E+00
  rms(prec ) = 0.54383E+00
  weight for this iteration     100.00

 eigenvalues of (default mixing * dielectric matrix)
  average eigenvalue GAMMA=   1.1917
  1.1917

 Free energy of the ion-electron system (eV)
  ---------------------------------------------------
  alpha Z        PSCENC =         0.24311671
  Ewald energy   TEWEN  =       125.97754282
  -Hartree energ DENC   =      -261.81467667
  -exchange      EXHF   =         0.00000000
  -V(xc)+E(xc)   XCENC  =        23.11309280
  PAW double counting   =       234.25368274     -235.02668352
  entropy T*S    EENTRO =        -0.00000000
  eigenvalues    EBANDS =      -108.31783441
  atomic energy  EATOM  =       197.04175453
  Solvation  Ediel_sol  =         0.00000000
  ---------------------------------------------------
  free energy    TOTEN  =       -24.53000500 eV

  energy without entropy =      -24.53000500  energy(sigma->0) =      -24.53000500


--------------------------------------------------------------------------------------------------------




--------------------------------------- Iteration      1(   7)  ---------------------------------------


    POTLOK:  cpu time    1.6306: real time    1.6345
    SETDIJ:  cpu time    0.0066: real time    0.0066
     EDDAV:  cpu time    0.6238: real time    0.6253
       DOS:  cpu time    0.0001: real time    0.0001
    CHARGE:  cpu time    0.0835: real time    0.0837
    MIXING:  cpu time    0.0349: real time    0.0350
    --------------------------------------------
      LOOP:  cpu time    2.3795: real time    2.3851

 eigenvalue-minimisations  :    24
 total energy-change (2. order) : 0.4551934E+00  (-0.6657808E-01)
 number of electron       8.0000000 magnetization 
 augmentation part        0.1853746 magnetization 

 Broyden mixing:
  rms(total) = 0.22089E+00    rms(broyden)= 0.22085E+00
  rms(prec ) = 0.27275E+00
  weight for this iteration     100.00

 eigenvalues of (default mixing * dielectric matrix)
  average eigenvalue GAMMA=   1.6884
  1.2387  2.1380

 Free energy of the ion-electron system (eV)
  ---------------------------------------------------
  alpha Z        PSCENC =         0.24311671
  Ewald energy   TEWEN  =       125.97754282
  -Hartree energ DENC   =      -271.45758099
  -exchange      EXHF   =         0.00000000
  -V(xc)+E(xc)   XCENC  =        23.84107153
  PAW double counting   =       354.37023556     -355.16791613
  entropy T*S    EENTRO =        -0.00000000
  eigenvalues    EBANDS =       -98.92303562
  atomic energy  EATOM  =       197.04175453
  Solvation  Ediel_sol  =         0.00000000
  ---------------------------------------------------
  free energy    TOTEN  =       -24.07481159 eV

  energy without entropy =      -24.07481159  energy(sigma->0) =      -24.07481159


--------------------------------------------------------------------------------------------------------




--------------------------------------- Iteration      1(   8)  ---------------------------------------


    POTLOK:  cpu time    1.6135: real time    1.6173
    SETDIJ:  cpu time    0.0064: real time    0.0064
     EDDAV:  cpu time    0.6155: real time    0.6170
       DOS:  cpu time    0.0001: real time    0.0001
    CHARGE:  cpu time    0.0816: real time    0.0818
    MIXING:  cpu time    0.0354: real time    0.0354
    --------------------------------------------
      LOOP:  cpu time    2.3524: real time    2.3580

 eigenvalue-minimisations  :    24
 total energy-change (2. order) : 0.1594902E+00  (-0.1689755E-01)
 number of electron       8.0000000 magnetization 
 augmentation part        0.1828142 magnetization 

 Broyden mixing:
  rms(total) = 0.26561E-01    rms(broyden)= 0.26533E-01
  rms(prec ) = 0.54758E-01
  weight for this iteration     100.00

 eigenvalues of (default mixing * dielectric matrix)
  average eigenvalue GAMMA=   1.5580
  2.1729  1.0976  1.4035

 Free energy of the ion-electron system (eV)
  ---------------------------------------------------
  alpha Z        PSCENC =         0.24311671
  Ewald energy   TEWEN  =       125.97754282
  -Hartree energ DENC   =      -278.36036647
  -exchange      EXHF   =         0.00000000
  -V(xc)+E(xc)   XCENC  =        24.45430801
  PAW double counting   =       460.56390131     -461.34777384
  entropy T*S    EENTRO =        -0.00000000
  eigenvalues    EBANDS =       -92.48780445
  atomic energy  EATOM  =       197.04175453
  Solvation  Ediel_sol  =         0.00000000
  ---------------------------------------------------
  free energy    TOTEN  =       -23.91532138 eV

  energy without entropy =      -23.91532138  energy(sigma->0) =      -23.91532138


--------------------------------------------------------------------------------------------------------




--------------------------------------- Iteration      1(   9)  ---------------------------------------


    POTLOK:  cpu time    1.6059: real time    1.6097
    SETDIJ:  cpu time    0.0064: real time    0.0064
     EDDAV:  cpu time    0.8055: real time    0.8074
       DOS:  cpu time    0.0001: real time    0.0001
    CHARGE:  cpu time    0.0830: real time    0.0832
    MIXING:  cpu time    0.0356: real time    0.0357
    --------------------------------------------
      LOOP:  cpu time    2.5364: real time    2.5424

 eigenvalue-minimisations  :    32
 total energy-change (2. order) : 0.7182626E-02  (-0.3194695E-03)
 number of electron       8.0000000 magnetization 
 augmentation part        0.1823634 magnetization 

 Broyden mixing:
  rms(total) = 0.16145E-01    rms(broyden)= 0.16141E-01
  rms(prec ) = 0.36067E-01
  weight for this iteration     100.00

 eigenvalues of (default mixing * dielectric matrix)
  average eigenvalue GAMMA=   1.8824
  2.8846  2.4658  0.9770  1.2023

 Free energy of the ion-electron system (eV)
  ---------------------------------------------------
  alpha Z        PSCENC =         0.24311671
  Ewald energy   TEWEN  =       125.97754282
  -Hartree energ DENC   =      -279.67731048
  -exchange      EXHF   =         0.00000000
  -V(xc)+E(xc)   XCENC  =        24.52865162
  PAW double counting   =       459.38902019     -460.16970473
  entropy T*S    EENTRO =        -0.00000000
  eigenvalues    EBANDS =       -91.24120943
  atomic energy  EATOM  =       197.04175453
  Solvation  Ediel_sol  =         0.00000000
  ---------------------------------------------------
  free energy    TOTEN  =       -23.90813876 eV

  energy without entropy =      -23.90813876  energy(sigma->0) =      -23.90813876


--------------------------------------------------------------------------------------------------------




--------------------------------------- Iteration      1(  10)  ---------------------------------------


    POTLOK:  cpu time    1.5539: real time    1.5576
    SETDIJ:  cpu time    0.0065: real time    0.0065
     EDDAV:  cpu time    0.4455: real time    0.4466
       DOS:  cpu time    0.0001: real time    0.0001
    CHARGE:  cpu time    0.0807: real time    0.0809
    MIXING:  cpu time    0.0370: real time    0.0371
    --------------------------------------------
      LOOP:  cpu time    2.1238: real time    2.1288

 eigenvalue-minimisations  :    16
 total energy-change (2. order) : 0.8160946E-02  (-0.5546154E-03)
 number of electron       8.0000000 magnetization 
 augmentation part        0.1821385 magnetization 

 Broyden mixing:
  rms(total) = 0.66068E-02    rms(broyden)= 0.66053E-02
  rms(prec ) = 0.16151E-01
  weight for this iteration     100.00

 eigenvalues of (default mixing * dielectric matrix)
  average eigenvalue GAMMA=   1.8479
  3.0621  2.3291  0.9911  1.2072  1.6502

 Free energy of the ion-electron system (eV)
  ---------------------------------------------------
  alpha Z        PSCENC =         0.24311671
  Ewald energy   TEWEN  =       125.97754282
  -Hartree energ DENC   =      -281.28137132
  -exchange      EXHF   =         0.00000000
  -V(xc)+E(xc)   XCENC  =        24.59978625
  PAW double counting   =       450.00725378     -450.78407420
  entropy T*S    EENTRO =        -0.00000000
  eigenvalues    EBANDS =       -89.70398639
  atomic energy  EATOM  =       197.04175453
  Solvation  Ediel_sol  =         0.00000000
  ---------------------------------------------------
  free energy    TOTEN  =       -23.89997781 eV

  energy without entropy =      -23.89997781  energy(sigma->0) =      -23.89997781


--------------------------------------------------------------------------------------------------------




--------------------------------------- Iteration      1(  11)  ---------------------------------------


    POTLOK:  cpu time    1.4845: real time    1.4881
    SETDIJ:  cpu time    0.0064: real time    0.0064
     EDDAV:  cpu time    0.8126: real time    0.8145
       DOS:  cpu time    0.0001: real time    0.0001
    CHARGE:  cpu time    0.0861: real time    0.0863
    MIXING:  cpu time    0.0378: real time    0.0379
    --------------------------------------------
      LOOP:  cpu time    2.4275: real time    2.4333

 eigenvalue-minimisations  :    32
 total energy-change (2. order) :-0.5865897E-02  (-0.1954304E-03)
 number of electron       8.0000000 magnetization 
 augmentation part        0.1818057 magnetization 

 Broyden mixing:
  rms(total) = 0.39429E-02    rms(broyden)= 0.39421E-02
  rms(prec ) = 0.93362E-02
  weight for this iteration     100.00

 eigenvalues of (default mixing * dielectric matrix)
  average eigenvalue GAMMA=   2.0902
  4.2745  2.8019  2.1874  1.2526  1.0124  1.0124

 Free energy of the ion-electron system (eV)
  ---------------------------------------------------
  alpha Z        PSCENC =         0.24311671
  Ewald energy   TEWEN  =       125.97754282
  -Hartree energ DENC   =      -281.96439448
  -exchange      EXHF   =         0.00000000
  -V(xc)+E(xc)   XCENC  =        24.62495820
  PAW double counting   =       451.50958476     -452.28766839
  entropy T*S    EENTRO =        -0.00000000
  eigenvalues    EBANDS =       -89.05073787
  atomic energy  EATOM  =       197.04175453
  Solvation  Ediel_sol  =         0.00000000
  ---------------------------------------------------
  free energy    TOTEN  =       -23.90584371 eV

  energy without entropy =      -23.90584371  energy(sigma->0) =      -23.90584371


--------------------------------------------------------------------------------------------------------




--------------------------------------- Iteration      1(  12)  ---------------------------------------


    POTLOK:  cpu time    1.4263: real time    1.4297
    SETDIJ:  cpu time    0.0064: real time    0.0064
     EDDAV:  cpu time    0.4546: real time    0.4557
       DOS:  cpu time    0.0001: real time    0.0001
    CHARGE:  cpu time    0.0828: real time    0.0830
    MIXING:  cpu time    0.0375: real time    0.0376
    --------------------------------------------
      LOOP:  cpu time    2.0077: real time    2.0125

 eigenvalue-minimisations  :    16
 total energy-change (2. order) :-0.4670311E-02  (-0.6373614E-04)
 number of electron       8.0000000 magnetization 
 augmentation part        0.1818990 magnetization 

 Broyden mixing:
  rms(total) = 0.22851E-02    rms(broyden)= 0.22851E-02
  rms(prec ) = 0.51045E-02
  weight for this iteration     100.00

 eigenvalues of (default mixing * dielectric matrix)
  average eigenvalue GAMMA=   2.3310
  5.1469  3.3012  2.6162  1.9898  1.2454  1.0088  1.0088

 Free energy of the ion-electron system (eV)
  ---------------------------------------------------
  alpha Z        PSCENC =         0.24311671
  Ewald energy   TEWEN  =       125.97754282
  -Hartree energ DENC   =      -281.92471165
  -exchange      EXHF   =         0.00000000
  -V(xc)+E(xc)   XCENC  =        24.60822271
  PAW double counting   =       449.03553491     -449.81325706
  entropy T*S    EENTRO =        -0.00000000
  eigenvalues    EBANDS =       -89.07871700
  atomic energy  EATOM  =       197.04175453
  Solvation  Ediel_sol  =         0.00000000
  ---------------------------------------------------
  free energy    TOTEN  =       -23.91051402 eV

  energy without entropy =      -23.91051402  energy(sigma->0) =      -23.91051402


--------------------------------------------------------------------------------------------------------




--------------------------------------- Iteration      1(  13)  ---------------------------------------


    POTLOK:  cpu time    1.3778: real time    1.3810
    SETDIJ:  cpu time    0.0064: real time    0.0064
     EDDAV:  cpu time    0.8146: real time    0.8165
       DOS:  cpu time    0.0001: real time    0.0001
    CHARGE:  cpu time    0.0871: real time    0.0874
    MIXING:  cpu time    0.0395: real time    0.0396
    --------------------------------------------
      LOOP:  cpu time    2.3255: real time    2.3310

 eigenvalue-minimisations  :    32
 total energy-change (2. order) :-0.3981009E-02  (-0.9537191E-04)
 number of electron       8.0000000 magnetization 
 augmentation part        0.1818513 magnetization 

 Broyden mixing:
  rms(total) = 0.23411E-02    rms(broyden)= 0.23408E-02
  rms(prec ) = 0.32356E-02
  weight for this iteration     100.00

 eigenvalues of (default mixing * dielectric matrix)
  average eigenvalue GAMMA=   2.2621
  5.8208  3.5016  2.4735  2.1620  1.2623  1.0584  0.9883  0.8296

 Free energy of the ion-electron system (eV)
  ---------------------------------------------------
  alpha Z        PSCENC =         0.24311671
  Ewald energy   TEWEN  =       125.97754282
  -Hartree energ DENC   =      -282.05291515
  -exchange      EXHF   =         0.00000000
  -V(xc)+E(xc)   XCENC  =        24.61129865
  PAW double counting   =       451.16971980     -451.94698931
  entropy T*S    EENTRO =        -0.00000000
  eigenvalues    EBANDS =       -88.95802308
  atomic energy  EATOM  =       197.04175453
  Solvation  Ediel_sol  =         0.00000000
  ---------------------------------------------------
  free energy    TOTEN  =       -23.91449503 eV

  energy without entropy =      -23.91449503  energy(sigma->0) =      -23.91449503


--------------------------------------------------------------------------------------------------------




--------------------------------------- Iteration      1(  14)  ---------------------------------------


    POTLOK:  cpu time    1.3793: real time    1.3825
    SETDIJ:  cpu time    0.0064: real time    0.0064
     EDDAV:  cpu time    0.4519: real time    0.4530
       DOS:  cpu time    0.0001: real time    0.0001
    CHARGE:  cpu time    0.0905: real time    0.0907
    MIXING:  cpu time    0.0395: real time    0.0396
    --------------------------------------------
      LOOP:  cpu time    1.9676: real time    1.9723

 eigenvalue-minimisations  :    16
 total energy-change (2. order) :-0.5811086E-03  (-0.4824881E-05)
 number of electron       8.0000000 magnetization 
 augmentation part        0.1818563 magnetization 

 Broyden mixing:
  rms(total) = 0.65821E-03    rms(broyden)= 0.65811E-03
  rms(prec ) = 0.14666E-02
  weight for this iteration     100.00

 eigenvalues of (default mixing * dielectric matrix)
  average eigenvalue GAMMA=   2.5469
  6.9263  4.4218  2.9313  2.3055  2.0308  1.2636  0.9823  0.9823  1.0785

 Free energy of the ion-electron system (eV)
  ---------------------------------------------------
  alpha Z        PSCENC =         0.24311671
  Ewald energy   TEWEN  =       125.97754282
  -Hartree energ DENC   =      -281.99254761
  -exchange      EXHF   =         0.00000000
  -V(xc)+E(xc)   XCENC  =        24.60462490
  PAW double counting   =       450.03992201     -450.81743590
  entropy T*S    EENTRO =        -0.00000000
  eigenvalues    EBANDS =       -89.01205360
  atomic energy  EATOM  =       197.04175453
  Solvation  Ediel_sol  =         0.00000000
  ---------------------------------------------------
  free energy    TOTEN  =       -23.91507614 eV

  energy without entropy =      -23.91507614  energy(sigma->0) =      -23.91507614


--------------------------------------------------------------------------------------------------------




--------------------------------------- Iteration      1(  15)  ---------------------------------------


    POTLOK:  cpu time    1.4898: real time    1.4935
    SETDIJ:  cpu time    0.0065: real time    0.0065
     EDDAV:  cpu time    0.4612: real time    0.4623
       DOS:  cpu time    0.0001: real time    0.0001
    CHARGE:  cpu time    0.0875: real time    0.0878
    MIXING:  cpu time    0.0423: real time    0.0424
    --------------------------------------------
      LOOP:  cpu time    2.0876: real time    2.0926

 eigenvalue-minimisations  :    16
 total energy-change (2. order) :-0.6285806E-03  (-0.7744082E-05)
 number of electron       8.0000000 magnetization 
 augmentation part        0.1818550 magnetization 

 Broyden mixing:
  rms(total) = 0.42221E-03    rms(broyden)= 0.42219E-03
  rms(prec ) = 0.60089E-03
  weight for this iteration     100.00

 eigenvalues of (default mixing * dielectric matrix)
  average eigenvalue GAMMA=   2.4625
  7.3519  4.5866  2.8449  2.4958  2.0435  1.2683  1.0459  1.0103  0.9887  0.9887

 Free energy of the ion-electron system (eV)
  ---------------------------------------------------
  alpha Z        PSCENC =         0.24311671
  Ewald energy   TEWEN  =       125.97754282
  -Hartree energ DENC   =      -281.98528415
  -exchange      EXHF   =         0.00000000
  -V(xc)+E(xc)   XCENC  =        24.60355336
  PAW double counting   =       449.86723331     -450.64471637
  entropy T*S    EENTRO =        -0.00000000
  eigenvalues    EBANDS =       -89.01890493
  atomic energy  EATOM  =       197.04175453
  Solvation  Ediel_sol  =         0.00000000
  ---------------------------------------------------
  free energy    TOTEN  =       -23.91570472 eV

  energy without entropy =      -23.91570472  energy(sigma->0) =      -23.91570472


--------------------------------------------------------------------------------------------------------




--------------------------------------- Iteration      1(  16)  ---------------------------------------


    POTLOK:  cpu time    1.3785: real time    1.3817
    SETDIJ:  cpu time    0.0064: real time    0.0064
     EDDAV:  cpu time    0.8160: real time    0.8179
       DOS:  cpu time    0.0001: real time    0.0001
    CHARGE:  cpu time    0.0810: real time    0.0812
    MIXING:  cpu time    0.0409: real time    0.0410
    --------------------------------------------
      LOOP:  cpu time    2.3228: real time    2.3283

 eigenvalue-minimisations  :    32
 total energy-change (2. order) :-0.4827984E-04  (-0.1541011E-06)
 number of electron       8.0000000 magnetization 
 augmentation part        0.1818588 magnetization 

 Broyden mixing:
  rms(total) = 0.32592E-03    rms(broyden)= 0.32590E-03
  rms(prec ) = 0.47244E-03
  weight for this iteration     100.00

 eigenvalues of (default mixing * dielectric matrix)
  average eigenvalue GAMMA=   2.6302
  8.0885  4.8095  3.6882  2.5940  2.3304  2.0838  1.2852  1.1119  0.9691  0.9691
  1.0021

 Free energy of the ion-electron system (eV)
  ---------------------------------------------------
  alpha Z        PSCENC =         0.24311671
  Ewald energy   TEWEN  =       125.97754282
  -Hartree energ DENC   =      -281.98284081
  -exchange      EXHF   =         0.00000000
  -V(xc)+E(xc)   XCENC  =        24.60324628
  PAW double counting   =       449.82365552     -450.60113248
  entropy T*S    EENTRO =        -0.00000000
  eigenvalues    EBANDS =       -89.02109558
  atomic energy  EATOM  =       197.04175453
  Solvation  Ediel_sol  =         0.00000000
  ---------------------------------------------------
  free energy    TOTEN  =       -23.91575300 eV

  energy without entropy =      -23.91575300  energy(sigma->0) =      -23.91575300


--------------------------------------------------------------------------------------------------------




--------------------------------------- Iteration      1(  17)  ---------------------------------------


    POTLOK:  cpu time    1.4681: real time    1.4717
    SETDIJ:  cpu time    0.0064: real time    0.0064
     EDDAV:  cpu time    0.6242: real time    0.6257
       DOS:  cpu time    0.0001: real time    0.0001
    CHARGE:  cpu time    0.0856: real time    0.0858
    MIXING:  cpu time    0.0419: real time    0.0420
    --------------------------------------------
      LOOP:  cpu time    2.2263: real time    2.2317

 eigenvalue-minimisations  :    24
 total energy-change (2. order) :-0.6012429E-04  (-0.4276132E-06)
 number of electron       8.0000000 magnetization 
 augmentation part        0.1818495 magnetization 

 Broyden mixing:
  rms(total) = 0.88413E-04    rms(broyden)= 0.88378E-04
  rms(prec ) = 0.14286E-03
  weight for this iteration     100.00

 eigenvalues of (default mixing * dielectric matrix)
  average eigenvalue GAMMA=   2.5425
  8.3471  5.1631  3.7734  2.6897  2.3755  1.9634  1.2720  1.0914  0.9687  0.9687
  0.9655  0.9311

 Free energy of the ion-electron system (eV)
  ---------------------------------------------------
  alpha Z        PSCENC =         0.24311671
  Ewald energy   TEWEN  =       125.97754282
  -Hartree energ DENC   =      -282.00332823
  -exchange      EXHF   =         0.00000000
  -V(xc)+E(xc)   XCENC  =        24.60453502
  PAW double counting   =       449.95851113     -450.73601267
  entropy T*S    EENTRO =        -0.00000000
  eigenvalues    EBANDS =       -89.00193244
  atomic energy  EATOM  =       197.04175453
  Solvation  Ediel_sol  =         0.00000000
  ---------------------------------------------------
  free energy    TOTEN  =       -23.91581312 eV

  energy without entropy =      -23.91581312  energy(sigma->0) =      -23.91581312


--------------------------------------------------------------------------------------------------------




--------------------------------------- Iteration      1(  18)  ---------------------------------------


    POTLOK:  cpu time    1.4610: real time    1.4644
    SETDIJ:  cpu time    0.0062: real time    0.0062
     EDDAV:  cpu time    0.7795: real time    0.7814
       DOS:  cpu time    0.0001: real time    0.0001
    CHARGE:  cpu time    0.0810: real time    0.0812
    MIXING:  cpu time    0.0420: real time    0.0421
    --------------------------------------------
      LOOP:  cpu time    2.3697: real time    2.3753

 eigenvalue-minimisations  :    32
 total energy-change (2. order) :-0.2225842E-05  (-0.1729016E-07)
 number of electron       8.0000000 magnetization 
 augmentation part        0.1818522 magnetization 

 Broyden mixing:
  rms(total) = 0.63470E-04    rms(broyden)= 0.63461E-04
  rms(prec ) = 0.92874E-04
  weight for this iteration     100.00

 eigenvalues of (default mixing * dielectric matrix)
  average eigenvalue GAMMA=   2.5415
  8.4396  5.2700  3.8737  2.5865  2.4969  2.2256  1.4752  1.4752  1.2483  1.0081
  1.0081  0.9660  0.9660

 Free energy of the ion-electron system (eV)
  ---------------------------------------------------
  alpha Z        PSCENC =         0.24311671
  Ewald energy   TEWEN  =       125.97754282
  -Hartree energ DENC   =      -282.00125593
  -exchange      EXHF   =         0.00000000
  -V(xc)+E(xc)   XCENC  =        24.60444442
  PAW double counting   =       449.96779528     -450.74528039
  entropy T*S    EENTRO =        -0.00000000
  eigenvalues    EBANDS =       -89.00393280
  atomic energy  EATOM  =       197.04175453
  Solvation  Ediel_sol  =         0.00000000
  ---------------------------------------------------
  free energy    TOTEN  =       -23.91581535 eV

  energy without entropy =      -23.91581535  energy(sigma->0) =      -23.91581535


--------------------------------------------------------------------------------------------------------




--------------------------------------- Iteration      1(  19)  ---------------------------------------


    POTLOK:  cpu time    1.4609: real time    1.4644
    SETDIJ:  cpu time    0.0062: real time    0.0062
     EDDAV:  cpu time    0.4298: real time    0.4308
       DOS:  cpu time    0.0001: real time    0.0001
    CHARGE:  cpu time    0.0817: real time    0.0819
    MIXING:  cpu time    0.0427: real time    0.0428
    --------------------------------------------
      LOOP:  cpu time    2.0214: real time    2.0262

 eigenvalue-minimisations  :    16
 total energy-change (2. order) :-0.4577419E-05  (-0.1401423E-07)
 number of electron       8.0000000 magnetization 
 augmentation part        0.1818530 magnetization 

 Broyden mixing:
  rms(total) = 0.17786E-04    rms(broyden)= 0.17782E-04
  rms(prec ) = 0.32939E-04
  weight for this iteration     100.00

 eigenvalues of (default mixing * dielectric matrix)
  average eigenvalue GAMMA=   2.5232
  8.5308  5.4299  4.0429  3.1517  2.6137  2.3372  1.9157  1.2788  1.1197  0.9854
  0.9649  0.9649  0.9945  0.9945

 Free energy of the ion-electron system (eV)
  ---------------------------------------------------
  alpha Z        PSCENC =         0.24311671
  Ewald energy   TEWEN  =       125.97754282
  -Hartree energ DENC   =      -281.99951672
  -exchange      EXHF   =         0.00000000
  -V(xc)+E(xc)   XCENC  =        24.60428012
  PAW double counting   =       449.95084099     -450.72831076
  entropy T*S    EENTRO =        -0.00000000
  eigenvalues    EBANDS =       -89.00552762
  atomic energy  EATOM  =       197.04175453
  Solvation  Ediel_sol  =         0.00000000
  ---------------------------------------------------
  free energy    TOTEN  =       -23.91581993 eV

  energy without entropy =      -23.91581993  energy(sigma->0) =      -23.91581993


--------------------------------------------------------------------------------------------------------




--------------------------------------- Iteration      1(  20)  ---------------------------------------


    POTLOK:  cpu time    1.4588: real time    1.4623
    SETDIJ:  cpu time    0.0062: real time    0.0062
     EDDAV:  cpu time    0.7675: real time    0.7693
       DOS:  cpu time    0.0001: real time    0.0001
    --------------------------------------------
      LOOP:  cpu time    2.2327: real time    2.2380

 eigenvalue-minimisations  :    32
 total energy-change (2. order) :-0.5101876E-06  (-0.1856819E-08)
 number of electron       8.0000000 magnetization 
 augmentation part        0.1818530 magnetization 

 Free energy of the ion-electron system (eV)
  ---------------------------------------------------
  alpha Z        PSCENC =         0.24311671
  Ewald energy   TEWEN  =       125.97754282
  -Hartree energ DENC   =      -281.99912747
  -exchange      EXHF   =         0.00000000
  -V(xc)+E(xc)   XCENC  =        24.60424926
  PAW double counting   =       449.95090720     -450.72837942
  entropy T*S    EENTRO =        -0.00000000
  eigenvalues    EBANDS =       -89.00588407
  atomic energy  EATOM  =       197.04175453
  Solvation  Ediel_sol  =         0.00000000
  ---------------------------------------------------
  free energy    TOTEN  =       -23.91582044 eV

  energy without entropy =      -23.91582044  energy(sigma->0) =      -23.91582044


--------------------------------------------------------------------------------------------------------




 average (electrostatic) potential at core
  the test charge radii are     0.5201  0.6991
  (the norm of the test charge is              1.0000)
       1 -41.2896       2 -41.5337       3 -41.3887       4 -41.5557       5 -58.0428



 E-fermi :  -8.4786     XC(G=0):  -0.7059     alpha+bet : -0.2114


 k-point     1 :       0.0000    0.0000    0.0000
  band No.  band energies     occupation 
      1     -16.8222      2.00000
      2      -9.6318      2.00000
      3      -9.3077      2.00000
      4      -8.7412      2.00000
      5      -0.5505      0.00000
      6       0.9603      0.00000
      7       0.9986      0.00000
      8       1.0354      0.00000


--------------------------------------------------------------------------------------------------------


 soft charge-density along one line, spin component           1
         0         1         2         3         4         5         6         7         8         9
 total charge-density along one line

 pseudopotential strength for first ion, spin component:           1
 -2.339  -4.029  -0.001  -0.002  -0.000
 -4.029  -6.856  -0.002  -0.005  -0.001
 -0.001  -0.002  -0.339   0.001   0.000
 -0.002  -0.005   0.001  -0.336   0.001
 -0.000  -0.001   0.000   0.001  -0.340
 total augmentation occupancy for first ion, spin component:           1
  3.490  -0.630   0.128   0.375   0.101
 -0.630   0.130  -0.025  -0.070  -0.019
  0.128  -0.025   0.013   0.011   0.003
  0.375  -0.070   0.011   0.042   0.009
  0.101  -0.019   0.003   0.009   0.011


------------------------ aborting loop because EDIFF is reached ----------------------------------------


    CHARGE:  cpu time    0.0804: real time    0.0806
    FORLOC:  cpu time    0.1049: real time    0.1052
    FORNL :  cpu time    0.1370: real time    0.1373
    STRESS:  cpu time    0.5232: real time    0.5244
    FORCOR:  cpu time    1.5164: real time    1.5200
    FORHAR:  cpu time    0.4979: real time    0.4991
    MIXING:  cpu time    0.0443: real time    0.0444
    OFIELD:  cpu time    0.0000: real time    0.0000

  FORCE on cell =-STRESS in cart. coord.  units (eV):
  Direction    XX          YY          ZZ          XY          YZ          ZX
  --------------------------------------------------------------------------------------
  Alpha Z     0.24312     0.24312     0.24312
  Ewald      45.10314    46.51684    34.35753    -6.98781    -4.62307    -2.92283
  Hartree    94.36238    97.75583    89.88179    -2.21690    -0.94064    -0.73344
  E(xc)     -27.04825   -27.04747   -27.08161    -0.03781    -0.02330    -0.01132
  Local    -197.57784  -203.16973  -183.97906     8.11247     4.62634     3.05757
  n-local   -15.55210   -15.51415   -15.69585    -0.05193    -0.05002    -0.00803
  augment     0.11476     0.12139     0.12562     0.00683     0.00632     0.00448
  Kinetic    99.51884    99.71250   101.63674     1.83424     1.30446     0.60984
  Fock        0.00000     0.00000     0.00000     0.00000     0.00000     0.00000
  -------------------------------------------------------------------------------------
  Total      -0.83595    -1.38167    -0.51172     0.65908     0.30010    -0.00373
  in kB      -1.34413    -2.22160    -0.82280     1.05974     0.48253    -0.00600
  external pressure =       -1.46 kB  Pullay stress =        0.00 kB


 VOLUME and BASIS-vectors are now :
 -----------------------------------------------------------------------------
  energy-cutoff  :      400.00
  volume of cell :      996.44
      direct lattice vectors                 reciprocal lattice vectors
    10.006619500  0.000000000  0.000000000     0.099933849  0.002269562  0.000748798
    -0.221244500  9.741885200  0.000000000     0.000000000  0.102649536 -0.002424515
    -0.082073000  0.241428100 10.221626300     0.000000000 -0.000000000  0.097831790

  length of vectors
    10.006619500  9.744397179 10.224806488     0.099962422  0.102678165  0.097831790


 FORCES acting on ions
    electron-ion (+dipol)            ewald-force                    non-local-force                 convergence-correction
 -----------------------------------------------------------------------------------------------
   0.126E+02 0.166E+02 0.478E+02   -.139E+02 -.183E+02 -.523E+02   0.128E+01 0.161E+01 0.478E+01   -.268E-04 -.764E-05 -.431E-04
   0.378E+02 0.170E+02 -.325E+02   -.417E+02 -.188E+02 0.360E+02   0.406E+01 0.180E+01 -.327E+01   -.555E-04 -.266E-04 -.102E-04
   0.287E+01 -.512E+02 0.469E+01   -.274E+01 0.556E+02 -.477E+01   0.445E+00 -.509E+01 0.643E+00   -.228E-04 0.327E-04 -.479E-04
   -.466E+02 0.212E+02 -.101E+02   0.511E+02 -.229E+02 0.113E+02   -.479E+01 0.233E+01 -.895E+00   0.415E-04 -.342E-04 -.226E-04
   -.686E+01 -.399E+01 -.926E+01   0.723E+01 0.440E+01 0.974E+01   -.925E+00 -.227E+00 -.186E+01   -.226E-03 -.111E-03 -.394E-03
 -----------------------------------------------------------------------------------------------
   -.743E-01 -.420E+00 0.605E+00   0.711E-14 0.000E+00 -.533E-14   0.747E-01 0.420E+00 -.604E+00   -.289E-03 -.147E-03 -.518E-03


 POSITION                                       TOTAL-FORCE (eV/Angst)
 -----------------------------------------------------------------------------------
      4.62407      4.32202      3.53826         0.027284     -0.094921      0.281682
      4.10189      4.31663      5.22011         0.211601      0.006259      0.235663
      4.82737      5.78754      4.44113         0.568868     -0.690790      0.562010
      5.88559      4.21646      4.75944        -0.252886      0.600036      0.305009
      4.89924      4.67408      4.55802        -0.554867      0.179415     -1.384364
 -----------------------------------------------------------------------------------
    total drift:                                0.000057     -0.000277     -0.000020


--------------------------------------------------------------------------------------------------------



  FREE ENERGIE OF THE ION-ELECTRON SYSTEM (eV)
  ---------------------------------------------------
  free  energy   TOTEN  =       -23.91582044 eV

  energy  without entropy=      -23.91582044  energy(sigma->0) =      -23.91582044



--------------------------------------------------------------------------------------------------------


    POTLOK:  cpu time    1.4571: real time    1.4606


--------------------------------------------------------------------------------------------------------


     LOOP+:  cpu time   42.9389: real time   43.0456
    4ORBIT:  cpu time    0.0000: real time    0.0000

 total amount of memory used by VASP MPI-rank0   274696. kBytes
=======================================================================

   base      :      30000. kBytes
   nonlr-proj:       1236. kBytes
   fftplans  :      86584. kBytes
   grid      :     154542. kBytes
   one-center:         15. kBytes
   wavefun   :       2319. kBytes

  
  
 General timing and accounting informations for this job:
 ========================================================
  
                  Total CPU time used (sec):       44.613
                            User time (sec):       43.270
                          System time (sec):        1.343
                         Elapsed time (sec):       44.730
  
                   Maximum memory used (kb):      388976.
                   Average memory used (kb):           0.
  
                          Minor page faults:       196307
                          Major page faults:            0
                 Voluntary context switches:          146
