5.834299999999999820e+00 4.097179999999999822e+00 4.987140000000000128e+00 5.400129999999999875e+00 5.734729999999999883e+00 4.221809999999999619e+00 4.164670000000000094e+00 4.701740000000000030e+00 4.864220000000000432e+00 5.102710000000000079e+00 4.080199999999999605e+00 3.452259999999999884e+00 5.132450000000000401e+00 4.716590000000000060e+00 4.391119999999999912e+00
4.371850000000000236e+00 5.087850000000000428e+00 5.384109999999999729e+00 4.402809999999999668e+00 4.246080000000000076e+00 3.817689999999999806e+00 5.799360000000000070e+00 4.079900000000000304e+00 4.986010000000000275e+00 5.569539999999999935e+00 5.638910000000000089e+00 4.068430000000000213e+00 5.105430000000000135e+00 4.759409999999999918e+00 4.536299999999999777e+00
5.422550000000000203e+00 4.845110000000000028e+00 3.358350000000000168e+00 4.094850000000000101e+00 4.905920000000000059e+00 4.535249999999999559e+00 5.822869999999999990e+00 4.911570000000000213e+00 5.092679999999999652e+00 5.105109999999999815e+00 3.437949999999999839e+00 4.461800000000000210e+00 5.085849999999999760e+00 4.578990000000000116e+00 4.362099999999999866e+00
5.536609999999999587e+00 5.230949999999999989e+00 3.603730000000000100e+00 4.145500000000000185e+00 4.907569999999999766e+00 4.727710000000000079e+00 5.781250000000000000e+00 4.402140000000000164e+00 5.203540000000000276e+00 4.967819999999999681e+00 3.548519999999999897e+00 3.861400000000000166e+00 5.087030000000000385e+00 4.579939999999999678e+00 4.366410000000000124e+00
4.435539999999999594e+00 3.710749999999999993e+00 4.866570000000000285e+00 5.690470000000000361e+00 4.459889999999999688e+00 3.809849999999999959e+00 5.221210000000000129e+00 5.147129999999999761e+00 5.444359999999999644e+00 4.050900000000000389e+00 5.210910000000000153e+00 4.084810000000000052e+00 4.902639999999999887e+00 4.683569999999999567e+00 4.537460000000000271e+00
4.124399999999999622e+00 4.273360000000000269e+00 3.897710000000000008e+00 5.025070000000000370e+00 4.064099999999999824e+00 5.417639999999999567e+00 4.643600000000000172e+00 5.705589999999999939e+00 4.934549999999999770e+00 5.845519999999999605e+00 4.730949999999999989e+00 4.014660000000000117e+00 4.882600000000000051e+00 4.663129999999999775e+00 4.532549999999999635e+00
4.200129999999999697e+00 3.816100000000000048e+00 4.804689999999999905e+00 5.834080000000000155e+00 4.300670000000000215e+00 4.093700000000000117e+00 5.045960000000000001e+00 5.182750000000000412e+00 5.480349999999999611e+00 4.297159999999999869e+00 5.246540000000000425e+00 3.806839999999999780e+00 4.904370000000000118e+00 4.682129999999999903e+00 4.539130000000000109e+00
6.133890000000000065e+00 4.322129999999999583e+00 4.586979999999999613e+00 5.034349999999999881e+00 5.565900000000000070e+00 3.739430000000000032e+00 4.637229999999999741e+00 4.933139999999999858e+00 5.315369999999999706e+00 4.705619999999999692e+00 3.797740000000000116e+00 3.916020000000000056e+00 5.131680000000000241e+00 4.716169999999999973e+00 4.388429999999999609e+00
4.476969999999999672e+00 3.880999999999999783e+00 4.679400000000000226e+00 5.353819999999999801e+00 4.885930000000000106e+00 3.406390000000000029e+00 6.098469999999999835e+00 4.601989999999999803e+00 5.057839999999999669e+00 4.564669999999999561e+00 5.627290000000000347e+00 4.876850000000000129e+00 5.115359999999999907e+00 4.755530000000000257e+00 4.456080000000000041e+00
3.983270000000000088e+00 4.044459999999999944e+00 4.392929999999999779e+00 5.628779999999999895e+00 3.950590000000000046e+00 4.881260000000000154e+00 4.589100000000000179e+00 5.439809999999999590e+00 5.282799999999999940e+00 5.088409999999999656e+00 5.140710000000000335e+00 3.564589999999999925e+00 4.911690000000000111e+00 4.679669999999999774e+00 4.544459999999999944e+00
5.189339999999999620e+00 3.674859999999999793e+00 4.184569999999999901e+00 4.484040000000000248e+00 5.368319999999999759e+00 3.723689999999999944e+00 6.100419999999999732e+00 5.259769999999999612e+00 4.442490000000000272e+00 4.653249999999999886e+00 4.830519999999999925e+00 5.469500000000000028e+00 5.120930000000000426e+00 4.744089999999999918e+00 4.472760000000000069e+00
4.247770000000000046e+00 4.336979999999999613e+00 3.769620000000000193e+00 4.857529999999999681e+00 4.086879999999999846e+00 5.437260000000000204e+00 4.650450000000000195e+00 5.745070000000000121e+00 4.796129999999999782e+00 5.914930000000000021e+00 4.581949999999999967e+00 4.182570000000000121e+00 4.879929999999999879e+00 4.665060000000000429e+00 4.539130000000000109e+00
4.036900000000000155e+00 4.214100000000000179e+00 4.047930000000000028e+00 5.110599999999999810e+00 3.909409999999999830e+00 5.281019999999999825e+00 4.488220000000000098e+00 5.666409999999999947e+00 4.935019999999999740e+00 5.647280000000000300e+00 4.850520000000000387e+00 3.756400000000000183e+00 4.912230000000000096e+00 4.674260000000000304e+00 4.552900000000000169e+00
5.407020000000000159e+00 3.884349999999999969e+00 5.098220000000000418e+00 5.475080000000000169e+00 5.667480000000000295e+00 4.778880000000000017e+00 4.052430000000000199e+00 4.631470000000000198e+00 4.229070000000000107e+00 5.610479999999999912e+00 4.446559999999999846e+00 3.393769999999999953e+00 5.128849999999999909e+00 4.715250000000000163e+00 4.393250000000000099e+00
4.307599999999999874e+00 4.342869999999999564e+00 3.725280000000000147e+00 4.512819999999999609e+00 4.088300000000000267e+00 5.363599999999999923e+00 4.623050000000000104e+00 5.760670000000000179e+00 4.614300000000000068e+00 5.930760000000000254e+00 4.468189999999999884e+00 4.260460000000000136e+00 4.904630000000000045e+00 4.672629999999999839e+00 4.557629999999999626e+00
5.459069999999999645e+00 3.656699999999999839e+00 4.766070000000000029e+00 5.071609999999999729e+00 5.288090000000000401e+00 5.330790000000000362e+00 3.921699999999999964e+00 4.444930000000000270e+00 4.327379999999999782e+00 5.523939999999999628e+00 4.941790000000000127e+00 3.659870000000000179e+00 4.955619999999999692e+00 4.567289999999999850e+00 4.550939999999999763e+00
4.624069999999999681e+00 4.322020000000000195e+00 3.538260000000000183e+00 4.101890000000000036e+00 4.316629999999999967e+00 5.220110000000000028e+00 4.827370000000000161e+00 5.787539999999999907e+00 4.441130000000000244e+00 5.885589999999999655e+00 4.216459999999999653e+00 4.759439999999999671e+00 4.899239999999999817e+00 4.674080000000000013e+00 4.558019999999999960e+00
5.651189999999999714e+00 3.770379999999999843e+00 4.820190000000000197e+00 5.205560000000000187e+00 5.481449999999999712e+00 5.153419999999999668e+00 3.906719999999999970e+00 4.309050000000000047e+00 4.649619999999999642e+00 5.197980000000000267e+00 4.790199999999999569e+00 3.436799999999999855e+00 4.956859999999999822e+00 4.565660000000000274e+00 4.552940000000000431e+00
4.063089999999999868e+00 3.936189999999999856e+00 4.639870000000000161e+00 5.826419999999999710e+00 4.130919999999999703e+00 4.446159999999999890e+00 4.832600000000000229e+00 5.258829999999999671e+00 5.431110000000000326e+00 4.632520000000000415e+00 5.232409999999999783e+00 3.642300000000000093e+00 4.906259999999999621e+00 4.681099999999999817e+00 4.541310000000000180e+00
