-2.389043449999999780e+01
-2.389300852999999947e+01
-2.393968277999999827e+01
-2.393584338000000145e+01
-2.394374463000000119e+01
-2.394995139999999623e+01
-2.391988299999999867e+01
-2.389388578000000152e+01
-2.393513961000000023e+01
-2.389876311000000086e+01
-2.392883064999999831e+01
-2.392521323000000066e+01
-2.382758824000000075e+01
-2.395117795000000172e+01
-2.386767268999999914e+01
-2.392928064999999904e+01
-2.391582044000000096e+01
-2.393050089999999841e+01
-2.392937609000000165e+01
