-1.594900000000000137e-02 8.173449999999999882e-01 2.601430000000000131e-01 6.841180000000000039e-01 7.512579999999999814e-01 -2.402739999999999876e-01 -6.421149999999999913e-01 -1.650790000000000035e-01 2.678860000000000130e-01 -2.936369999999999814e-01 1.050893999999999995e+00 4.631449999999999734e-01 2.675830000000000153e-01 -2.454417999999999989e+00 -7.509000000000000119e-01
1.276286999999999949e+00 -1.878759999999999875e-01 -1.178771999999999931e+00 8.971590000000000398e-01 2.600459999999999994e-01 3.380239999999999911e-01 6.902629999999999599e-01 -5.489530000000000243e-01 8.813300000000000300e-02 3.860999999999999849e-03 -1.746419999999999917e-01 1.248829999999999940e-01 -2.867570000000000174e+00 6.514250000000000318e-01 6.277329999999999854e-01
-6.899999999999999667e-04 5.203800000000000092e-02 -1.566950000000000010e-01 -1.122484999999999955e+00 6.232999999999999652e-01 3.750700000000000145e-01 -8.509899999999999409e-02 4.584770000000000234e-01 2.174790000000000056e-01 -1.370580000000000132e-01 1.188005999999999895e+00 -3.113690000000000069e-01 1.345331000000000055e+00 -2.321820999999999913e+00 -1.244839999999999974e-01
-1.287240000000000051e-01 1.833509999999999862e-01 2.584589999999999943e-01 -1.060060000000000002e+00 5.300190000000000179e-01 2.908769999999999967e-01 -4.010099999999999776e-02 2.747999999999999887e-01 -9.261700000000000488e-02 -4.237099999999999894e-02 1.293663000000000007e+00 6.327580000000000426e-01 1.271255000000000024e+00 -2.281832000000000082e+00 -1.089477000000000029e+00
5.060529999999999751e-01 4.508809999999999762e-01 -2.981550000000000034e-01 5.523100000000000231e-02 2.304940000000000044e-01 1.233100000000000029e-01 5.686379999999999768e-01 7.137489999999999668e-01 5.786660000000000137e-01 3.185810000000000031e-01 3.200879999999999836e-01 -9.013599999999999390e-02 -1.448501999999999956e+00 -1.715211999999999959e+00 -3.136849999999999916e-01
-8.445350000000000357e-01 -3.039049999999999807e-01 -6.031469999999999887e-01 -1.604200000000000070e-02 -6.307390000000000496e-01 4.161929999999999796e-01 1.528099999999999944e-02 -1.054998000000000102e+00 -7.142570000000000308e-01 -1.554999999999999959e-03 -3.923999999999999710e-02 -1.647990000000000010e-01 8.468510000000000204e-01 2.028882999999999992e+00 1.066009999999999902e+00
1.030024000000000051e+00 6.051429999999999865e-01 -3.631260000000000043e-01 -1.383330000000000115e-01 9.816199999999999926e-02 1.295479999999999965e-01 3.236919999999999797e-01 6.975240000000000329e-01 3.480929999999999858e-01 4.928310000000000191e-01 2.681439999999999935e-01 2.424159999999999926e-01 -1.708213999999999899e+00 -1.668971999999999900e+00 -3.569300000000000250e-01
4.571520000000000028e-01 8.201110000000000344e-01 4.143199999999999661e-02 3.872099999999999986e-01 4.546799999999999731e-01 -5.644550000000000400e-01 -4.146170000000000133e-01 -6.743999999999999995e-03 7.303880000000000372e-01 -4.709349999999999925e-01 6.801030000000000131e-01 1.326710000000000111e-01 4.118999999999999745e-02 -1.948150000000000048e+00 -3.400349999999999762e-01
2.059189999999999909e-01 4.105500000000000121e-02 -4.421240000000000170e-01 -1.044550000000000062e-01 -4.959399999999999920e-02 -3.298059999999999881e-01 -1.410795999999999939e+00 3.540329999999999866e-01 -9.047119999999999607e-01 4.461789999999999923e-01 -1.839179999999999982e-01 -3.276029999999999776e-01 8.631520000000000303e-01 -1.615759999999999974e-01 2.004245000000000054e+00
5.700300000000000367e-01 5.382329999999999615e-01 3.769299999999999734e-02 8.739320000000000421e-01 1.179020000000000068e-01 2.254720000000000057e-01 5.816999999999999948e-01 -2.390369999999999995e-01 -9.104199999999999793e-02 4.612069999999999781e-01 -3.626100000000000156e-02 1.632149999999999990e-01 -2.486868999999999996e+00 -3.808369999999999811e-01 -3.353380000000000249e-01
1.298599999999999928e-02 5.299350000000000449e-01 -5.259799999999999892e-02 6.893190000000000150e-01 -1.254361999999999977e+00 1.029743000000000075e+00 -1.052519999999999983e-01 -4.559150000000000147e-01 2.672030000000000238e-01 2.079930000000000112e-01 1.900500000000000106e-02 -1.899319999999999897e-01 -8.050460000000000393e-01 1.161337000000000064e+00 -1.054416000000000020e+00
-1.229681000000000024e+00 -6.983780000000000543e-01 -1.018653000000000031e+00 -4.765349999999999864e-01 -6.544459999999999722e-01 7.396460000000000257e-01 2.625230000000000063e-01 -9.810910000000000464e-01 -2.921690000000000120e-01 7.248400000000000676e-02 2.662930000000000019e-01 -1.296319999999999972e-01 1.371210000000000040e+00 2.067622000000000071e+00 7.008079999999999865e-01
6.587800000000000600e-02 2.321179999999999910e-01 -2.409459999999999935e-01 8.638299999999999867e-01 3.060600000000000126e-02 7.960720000000000018e-01 8.687650000000000095e-01 -1.221435999999999966e+00 -3.302299999999999680e-02 2.790759999999999907e-01 -1.370790000000000064e-01 4.388219999999999898e-01 -2.077548000000000172e+00 1.095790000000000042e+00 -9.609250000000000291e-01
-1.008619999999999933e-01 6.563679999999999515e-01 -3.571480000000000210e-01 -6.809999999999999387e-02 3.339559999999999751e-01 -5.936000000000000304e-03 -2.129459999999999964e-01 4.020500000000000185e-01 1.439819999999999989e-01 -3.187459999999999738e-01 5.331930000000000280e-01 1.064975000000000005e+00 7.006539999999999990e-01 -1.925567000000000029e+00 -8.458729999999999860e-01
-4.531919999999999837e-01 -3.706099999999999950e-01 -8.955990000000000339e-01 1.674760000000000137e-01 -2.441389999999999949e-01 1.070951999999999904e+00 6.621460000000000123e-01 -7.509550000000000392e-01 4.024710000000000232e-01 3.439840000000000120e-01 1.691469999999999918e-01 4.343580000000000219e-01 -7.204139999999999988e-01 1.196555999999999953e+00 -1.012181999999999915e+00
2.138799999999999868e-01 -1.164531999999999901e+00 6.493860000000000188e-01 1.648429999999999895e-01 5.334759999999999502e-01 8.364040000000000363e-01 -9.654359999999999609e-01 -2.878189999999999915e-01 -3.244319999999999982e-01 -6.316249999999999920e-01 5.753300000000000081e-02 3.419090000000000185e-01 1.218339000000000061e+00 8.613420000000000520e-01 -1.503265000000000073e+00
2.728399999999999923e-02 -9.492100000000000537e-02 2.816819999999999879e-01 2.116010000000000113e-01 6.258999999999999807e-03 2.356630000000000114e-01 5.688680000000000403e-01 -6.907900000000000151e-01 5.620100000000000096e-01 -2.528859999999999997e-01 6.000360000000000138e-01 3.050089999999999746e-01 -5.548669999999999991e-01 1.794149999999999912e-01 -1.384363999999999928e+00
-1.257989999999999942e-01 -3.448069999999999746e-01 3.187280000000000113e-01 -2.537050000000000138e-01 -6.195439999999999836e-01 -4.123189999999999911e-01 -2.092569999999999986e-01 -2.265880000000000116e-01 1.203769999999999979e-01 -5.231930000000000192e-01 -1.622599999999999876e-01 1.594657999999999909e+00 1.111954000000000109e+00 1.353197999999999901e+00 -1.621445000000000025e+00
6.887659999999999894e-01 2.573810000000000264e-01 -5.169699999999999990e-02 6.120480000000000365e-01 -1.050679999999999947e-01 -6.069399999999999795e-02 2.978779999999999761e-01 8.859989999999999810e-01 8.020070000000000254e-01 3.471890000000000254e-01 3.964599999999999791e-01 -1.236779999999999963e-01 -1.945881999999999890e+00 -1.434771999999999936e+00 -5.659370000000000234e-01
