 vasp.5.4.4.18Apr17-6-g9f103f2a35 (build Jul 12 2018 13:43:46) complex           
 executed on             LinuxGNU date 2019.06.25  21:09:27
 running on    1 total cores
 distrk:  each k-point on    1 cores,    1 groups
 distr:  one band on NCORES_PER_BAND=   1 cores,    1 groups


--------------------------------------------------------------------------------------------------------


 INCAR:
 POTCAR:    PAW_PBE H 15Jun2001                   
 POTCAR:    PAW_PBE C 08Apr2002                   
 POTCAR:    PAW_PBE H 15Jun2001                   
   VRHFIN =H: ultrasoft test                                                    
   LEXCH  = PE                                                                  
   EATOM  =    12.4884 eV,    0.9179 Ry                                         
                                                                                
   TITEL  = PAW_PBE H 15Jun2001                                                 
   LULTRA =        F    use ultrasoft PP ?                                      
   IUNSCR =        0    unscreen: 0-lin 1-nonlin 2-no                           
   RPACOR =    0.000    partial core radius                                     
   POMASS =    1.000; ZVAL   =    1.000    mass and valenz                      
   RCORE  =    1.100    outmost cutoff radius                                   
   RWIGS  =    0.700; RWIGS  =    0.370    wigner-seitz radius (au A)           
   ENMAX  =  250.000; ENMIN  =  200.000 eV                                      
   RCLOC  =    0.701    cutoff for local pot                                    
   LCOR   =        T    correct aug charges                                     
   LPAW   =        T    paw PP                                                  
   EAUG   =  400.000                                                            
   RMAX   =    1.123    core radius for proj-oper                               
   RAUG   =    1.200    factor for augmentation sphere                          
   RDEP   =    1.112    radius for radial grids                                 
   RDEPT  =    0.926    core radius for aug-charge                              
                                                                                
   Atomic configuration                                                         
    2 entries                                                                   
     n  l   j            E        occ.                                          
     1  0  0.50        -6.4927   1.0000                                         
     2  1  0.50        -3.4015   0.0000                                         
   Description                                                                  
     l       E           TYP  RCUT    TYP  RCUT                                 
     0     -6.4927494     23  1.100                                             
     0      6.8029130     23  1.100                                             
     1     -4.0817478     23  1.100                                             
  local pseudopotential read in
  atomic valenz-charges read in
  non local Contribution for L=           0  read in
    real space projection operators read in
  non local Contribution for L=           0  read in
    real space projection operators read in
  non local Contribution for L=           1  read in
    real space projection operators read in
    PAW grid and wavefunctions read in

   number of l-projection  operators is LMAX  =           3
   number of lm-projection operators is LMMAX =           5

 POTCAR:    PAW_PBE C 08Apr2002                   
   VRHFIN =C: s2p2                                                              
   LEXCH  = PE                                                                  
   EATOM  =   147.1560 eV,   10.8157 Ry                                         
                                                                                
   TITEL  = PAW_PBE C 08Apr2002                                                 
   LULTRA =        F    use ultrasoft PP ?                                      
   IUNSCR =        1    unscreen: 0-lin 1-nonlin 2-no                           
   RPACOR =    1.200    partial core radius                                     
   POMASS =   12.011; ZVAL   =    4.000    mass and valenz                      
   RCORE  =    1.500    outmost cutoff radius                                   
   RWIGS  =    1.630; RWIGS  =    0.863    wigner-seitz radius (au A)           
   ENMAX  =  400.000; ENMIN  =  300.000 eV                                      
   ICORE  =        2    local potential                                         
   LCOR   =        T    correct aug charges                                     
   LPAW   =        T    paw PP                                                  
   EAUG   =  644.873                                                            
   DEXC   =    0.000                                                            
   RMAX   =    1.529    core radius for proj-oper                               
   RAUG   =    1.300    factor for augmentation sphere                          
   RDEP   =    1.501    radius for radial grids                                 
   RDEPT  =    1.300    core radius for aug-charge                              
                                                                                
   Atomic configuration                                                         
    4 entries                                                                   
     n  l   j            E        occ.                                          
     1  0  0.50      -273.3789   2.0000                                         
     2  0  0.50       -13.7508   2.0000                                         
     2  1  0.50        -5.2854   2.0000                                         
     3  2  1.50        -5.4423   0.0000                                         
   Description                                                                  
     l       E           TYP  RCUT    TYP  RCUT                                 
     0    -13.7508458     23  1.200                                             
     0     -8.2022199     23  1.200                                             
     1     -5.2854383     23  1.500                                             
     1     34.0145650     23  1.500                                             
     2     -5.4423304      7  1.500                                             
  local pseudopotential read in
  partial core-charges read in
  partial kinetic energy density read in
  atomic valenz-charges read in
  non local Contribution for L=           0  read in
    real space projection operators read in
  non local Contribution for L=           0  read in
    real space projection operators read in
  non local Contribution for L=           1  read in
    real space projection operators read in
  non local Contribution for L=           1  read in
    real space projection operators read in
    PAW grid and wavefunctions read in

   number of l-projection  operators is LMAX  =           4
   number of lm-projection operators is LMMAX =           8


 ----------------------------------------------------------------------------- 
|                                                                             |
|  ADVICE TO THIS USER RUNNING 'VASP/VAMP'   (HEAR YOUR MASTER'S VOICE ...):  |
|                                                                             |
|      You have a (more or less) 'small supercell' and for smaller cells      |
|      it is recommended  to use the reciprocal-space projection scheme!      |
|      The real space optimization is not  efficient for small cells and it   |
|      is also less accurate ...                                              |
|      Therefore set LREAL=.FALSE. in the  INCAR file                         |
|                                                                             |
 ----------------------------------------------------------------------------- 

 Optimization of the real space projectors (new method)

 maximal supplied QI-value         = 34.20
 optimisation between [QCUT,QGAM] = [  9.92, 20.18] = [ 27.55,114.04] Ry 
 Optimized for a Real-space Cutoff    1.34 Angstroem

   l    n(q)    QCUT    max X(q) W(low)/X(q) W(high)/X(q)  e(spline) 
   0      8     9.919    19.460    0.16E-03    0.20E-03    0.36E-06
   0      8     9.919    12.209    0.16E-03    0.20E-03    0.35E-06
   1      8     9.919     4.655    0.19E-03    0.46E-03    0.40E-06
 Optimization of the real space projectors (new method)

 maximal supplied QI-value         = 25.13
 optimisation between [QCUT,QGAM] = [ 10.05, 20.36] = [ 28.30,116.06] Ry 
 Optimized for a Real-space Cutoff    1.51 Angstroem

   l    n(q)    QCUT    max X(q) W(low)/X(q) W(high)/X(q)  e(spline) 
   0      9    10.053   115.676    0.19E-03    0.21E-03    0.38E-06
   0      9    10.053    87.132    0.19E-03    0.21E-03    0.38E-06
   1      9    10.053     4.429    0.87E-04    0.11E-03    0.39E-06
   1      9    10.053     2.733    0.59E-04    0.62E-04    0.43E-06
  PAW_PBE H 15Jun2001                   :
 energy of atom  1       EATOM=  -12.4884
 kinetic energy error for atom=    0.0098 (will be added to EATOM!!)
  PAW_PBE C 08Apr2002                   :
 energy of atom  2       EATOM= -147.1560
 kinetic energy error for atom=    0.0288 (will be added to EATOM!!)


 POSCAR: POSCAR file written by OVITO            
  positions in cartesian coordinates
  No initial velocities read in
 exchange correlation table for  LEXCH =        8
   RHO(1)=    0.500       N(1)  =     2000
   RHO(2)=  100.500       N(2)  =     4000



--------------------------------------------------------------------------------------------------------


 ion  position               nearest neighbor table
   1  0.455  0.369  0.476-   5 1.13
   2  0.582  0.449  0.373-   5 1.10
   3  0.538  0.515  0.533-   5 1.07
   4  0.420  0.525  0.400-   5 1.10
   5  0.504  0.470  0.444-   3 1.07   2 1.10   4 1.10   1 1.13


IMPORTANT INFORMATION: All symmetrisations will be switched off!
NOSYMM: (Re-)initialisation of all symmetry stuff for point group C_1.




Automatic generation of k-mesh.
 generate k-points for:    1    1    1
Space group operators:
 irot       det(A)        alpha          n_x          n_y          n_z        tau_x        tau_y        tau_z
    1     1.000000     0.000000     1.000000     0.000000     0.000000     0.000000     0.000000     0.000000
 
 Subroutine IBZKPT returns following result:
 ===========================================
 
 Found      1 irreducible k-points:
 
 Following reciprocal coordinates:
            Coordinates               Weight
  0.000000  0.000000  0.000000      1.000000
 
 Following cartesian coordinates:
            Coordinates               Weight
  0.000000  0.000000  0.000000      1.000000
 


--------------------------------------------------------------------------------------------------------




 Dimension of arrays:
   k-points           NKPTS =      1   k-points in BZ     NKDIM =      1   number of bands    NBANDS=      8
   number of dos      NEDOS =    301   number of ions     NIONS =      5
   non local maximal  LDIM  =      4   non local SUM 2l+1 LMDIM =      8
   total plane-waves  NPLWV = 313600
   max r-space proj   IRMAX =   4575   max aug-charges    IRDMAX=   3913
   dimension x,y,z NGX =    70 NGY =   64 NGZ =   70
   dimension x,y,z NGXF=   140 NGYF=  128 NGZF=  140
   support grid    NGXF=   140 NGYF=  128 NGZF=  140
   ions per type =               4   1
   NGX,Y,Z   is equivalent  to a cutoff of  11.63, 10.92, 11.38 a.u.
   NGXF,Y,Z  is equivalent  to a cutoff of  23.26, 21.84, 22.76 a.u.

 SYSTEM =  unknown system                          
 POSCAR =  POSCAR file written by OVITO            

 Startparameter for this run:
   NWRITE =      2    write-flag & timer
   PREC   = a         normal or accurate (medium, high low for compatibility)
   ISTART =      0    job   : 0-new  1-cont  2-samecut
   ICHARG =      2    charge: 1-file 2-atom 10-const
   ISPIN  =      1    spin polarized calculation?
   LNONCOLLINEAR =      F non collinear calculations
   LSORBIT =      F    spin-orbit coupling
   INIWAV =      1    electr: 0-lowe 1-rand  2-diag
   LASPH  =      F    aspherical Exc in radial PAW
   METAGGA=      F    non-selfconsistent MetaGGA calc.

 Electronic Relaxation 1
   ENCUT  =  400.0 eV  29.40 Ry    5.42 a.u.  16.32 15.89 16.67*2*pi/ulx,y,z
   ENINI  =  400.0     initial cutoff
   ENAUG  =  644.9 eV  augmentation charge cutoff
   NELM   =    120;   NELMIN=  4; NELMDL= -5     # of ELM steps 
   EDIFF  = 0.1E-05   stopping-criterion for ELM
   LREAL  =      T    real-space projection
   NLSPLINE    = F    spline interpolate recip. space projectors
   LCOMPAT=      F    compatible to vasp.4.4
   GGA_COMPAT  = T    GGA compatible to vasp.4.4-vasp.4.6
   LMAXPAW     = -100 max onsite density
   LMAXMIX     =    2 max onsite mixed and CHGCAR
   VOSKOWN=      0    Vosko Wilk Nusair interpolation
   ROPT   =   -0.00025  -0.00025
 Ionic relaxation
   EDIFFG = 0.1E-04   stopping-criterion for IOM
   NSW    =      0    number of steps for IOM
   NBLOCK =      1;   KBLOCK =      1    inner block; outer block 
   IBRION =     -1    ionic relax: 0-MD 1-quasi-New 2-CG
   NFREE  =      0    steps in history (QN), initial steepest desc. (CG)
   ISIF   =      2    stress and relaxation
   IWAVPR =     10    prediction:  0-non 1-charg 2-wave 3-comb
   ISYM   =      0    0-nonsym 1-usesym 2-fastsym
   LCORR  =      T    Harris-Foulkes like correction to forces

   POTIM  = 0.5000    time-step for ionic-motion
   TEIN   =    0.0    initial temperature
   TEBEG  =    0.0;   TEEND  =   0.0 temperature during run
   SMASS  =  -3.00    Nose mass-parameter (am)
   estimated Nose-frequenzy (Omega)   =  0.10E-29 period in steps =****** mass=  -0.229E-26a.u.
   SCALEE = 1.0000    scale energy and forces
   NPACO  =    256;   APACO  = 16.0  distance and # of slots for P.C.
   PSTRESS=    0.0 pullay stress

  Mass of Ions in am
   POMASS =   1.00 12.01
  Ionic Valenz
   ZVAL   =   1.00  4.00
  Atomic Wigner-Seitz radii
   RWIGS  =  -1.00 -1.00
  virtual crystal weights 
   VCA    =   1.00  1.00
   NELECT =       8.0000    total number of electrons
   NUPDOWN=      -1.0000    fix difference up-down

 DOS related values:
   EMIN   =  10.00;   EMAX   =-10.00  energy-range for DOS
   EFERMI =   0.00
   ISMEAR =     0;   SIGMA  =   0.05  broadening in eV -4-tet -1-fermi 0-gaus

 Electronic relaxation 2 (details)
   IALGO  =     38    algorithm
   LDIAG  =      T    sub-space diagonalisation (order eigenvalues)
   LSUBROT=      F    optimize rotation matrix (better conditioning)
   TURBO    =      0    0=normal 1=particle mesh
   IRESTART =      0    0=no restart 2=restart with 2 vectors
   NREBOOT  =      0    no. of reboots
   NMIN     =      0    reboot dimension
   EREF     =   0.00    reference energy to select bands
   IMIX   =      4    mixing-type and parameters
     AMIX     =   0.40;   BMIX     =  1.00
     AMIX_MAG =   1.60;   BMIX_MAG =  1.00
     AMIN     =   0.10
     WC   =   100.;   INIMIX=   1;  MIXPRE=   1;  MAXMIX= -45

 Intra band minimization:
   WEIMIN = 0.0000     energy-eigenvalue tresh-hold
   EBREAK =  0.31E-07  absolut break condition
   DEPER  =   0.30     relativ break condition  

   TIME   =   0.40     timestep for ELM

  volume/ion in A,a.u.               =     199.29      1344.86
  Fermi-wavevector in a.u.,A,eV,Ry     =   0.327809  0.619470  1.462068  0.107459
  Thomas-Fermi vector in A             =   1.220856

 Write flags
   LWAVE        =      F    write WAVECAR
   LDOWNSAMPLE  =      F    k-point downsampling of WAVECAR
   LCHARG       =      F    write CHGCAR
   LVTOT        =      F    write LOCPOT, total local potential
   LVHAR        =      F    write LOCPOT, Hartree potential only
   LELF         =      F    write electronic localiz. function (ELF)
   LORBIT       =      0    0 simple, 1 ext, 2 COOP (PROOUT), +10 PAW based schemes


 Dipole corrections
   LMONO  =      F    monopole corrections only (constant potential shift)
   LDIPOL =      F    correct potential (dipole corrections)
   IDIPOL =      0    1-x, 2-y, 3-z, 4-all directions 
   EPSILON=  1.0000000 bulk dielectric constant

 Exchange correlation treatment:
   GGA     =    --    GGA type
   LEXCH   =     8    internal setting for exchange type
   VOSKOWN=      0    Vosko Wilk Nusair interpolation
   LHFCALC =     F    Hartree Fock is set to
   LHFONE  =     F    Hartree Fock one center treatment
   AEXX    =    0.0000 exact exchange contribution

 Linear response parameters
   LEPSILON=     F    determine dielectric tensor
   LRPA    =     F    only Hartree local field effects (RPA)
   LNABLA  =     F    use nabla operator in PAW spheres
   LVEL    =     F    velocity operator in full k-point grid
   LINTERFAST=   F  fast interpolation
   KINTER  =     0    interpolate to denser k-point grid
   CSHIFT  =0.1000    complex shift for real part using Kramers Kronig
   OMEGAMAX=  -1.0    maximum frequency
   DEG_THRESHOLD= 0.2000000E-02 threshold for treating states as degnerate
   RTIME   =   -0.100 relaxation time in fs
  (WPLASMAI=    0.000 imaginary part of plasma frequency in eV, 0.658/RTIME)
   DFIELD  = 0.0000000 0.0000000 0.0000000 field for delta impulse in time

 Orbital magnetization related:
   ORBITALMAG=     F  switch on orbital magnetization
   LCHIMAG   =     F  perturbation theory with respect to B field
   DQ        =  0.001000  dq finite difference perturbation B field
   LLRAUG    =     F  two centre corrections for induced B field



--------------------------------------------------------------------------------------------------------


 Static calculation
 charge density and potential will be updated during run
 non-spin polarized calculation
 Variant of blocked Davidson
 Davidson routine will perform the subspace rotation
 perform sub-space diagonalisation
    after iterative eigenvector-optimisation
 modified Broyden-mixing scheme, WC =      100.0
 initial mixing is a Kerker type mixing with AMIX =  0.4000 and BMIX =      1.0000
 Hartree-type preconditioning will be used
 using additional bands            4
 real space projection scheme for non local part
 use partial core corrections
 calculate Harris-corrections to forces   (improved forces if not selfconsistent)
 use gradient corrections 
 use of overlap-Matrix (Vanderbilt PP)
 Gauss-broadening in eV      SIGMA  =   0.05


--------------------------------------------------------------------------------------------------------


  energy-cutoff  :      400.00
  volume of cell :      996.44
      direct lattice vectors                 reciprocal lattice vectors
    10.006619500  0.000000000  0.000000000     0.099933849  0.002269562  0.000748798
    -0.221244500  9.741885200  0.000000000     0.000000000  0.102649536 -0.002424515
    -0.082073000  0.241428100 10.221626300     0.000000000 -0.000000000  0.097831790

  length of vectors
    10.006619500  9.744397179 10.224806488     0.099962422  0.102678165  0.097831790



 k-points in units of 2pi/SCALE and weight: read from INCAR                         
   0.00000000  0.00000000  0.00000000       1.000

 k-points in reciprocal lattice and weights: read from INCAR                         
   0.00000000  0.00000000  0.00000000       1.000

 position of ions in fractional coordinates (direct lattice) 
   0.45532646  0.36910771  0.47610526
   0.58164539  0.44856859  0.37272445
   0.53753407  0.51515058  0.53263147
   0.41970721  0.52499380  0.39962426
   0.50396698  0.46976514  0.44390783

 position of ions in cartesian coordinates  (Angst):
   4.43554020  3.71075010  4.86657000
   5.69047020  4.45988990  3.80985000
   5.22121000  5.14713000  5.44435980
   4.05090000  5.21090990  4.08480980
   4.90264000  4.68356990  4.53745990



--------------------------------------------------------------------------------------------------------


 k-point  1 :   0.0000 0.0000 0.0000  plane waves:   18093

 maximum and minimum number of plane-waves per node :     18093    18093

 maximum number of plane-waves:     18093
 maximum index in each direction: 
   IXMAX=   16   IYMAX=   15   IZMAX=   16
   IXMIN=  -16   IYMIN=  -15   IZMIN=  -16


 serial   3D FFT for wavefunctions
 parallel 3D FFT for charge:
    minimum data exchange during FFTs selected (reduces bandwidth)


 total amount of memory used by VASP MPI-rank0   274695. kBytes
=======================================================================

   base      :      30000. kBytes
   nonlr-proj:       1235. kBytes
   fftplans  :      86584. kBytes
   grid      :     154542. kBytes
   one-center:         15. kBytes
   wavefun   :       2319. kBytes

     INWAV:  cpu time    0.0000: real time    0.0000
 Broyden mixing: mesh for mixing (old mesh)
   NGX = 33   NGY = 31   NGZ = 33
  (NGX  =140   NGY  =128   NGZ  =140)
  gives a total of  33759 points

 initial charge density was supplied:
 charge density of overlapping atoms calculated
 number of electron       8.0000000 magnetization 
 keeping initial charge density in first step


--------------------------------------------------------------------------------------------------------


 Maximum index for non-local projection operator         4385
 Maximum index for augmentation-charges         3600 (set IRDMAX)


--------------------------------------------------------------------------------------------------------


 First call to EWALD:  gamma=   0.177
 Maximum number of real-space cells 3x 3x 3
 Maximum number of reciprocal cells 3x 3x 3

    FEWALD:  cpu time    0.0007: real time    0.0007


--------------------------------------- Iteration      1(   1)  ---------------------------------------


    POTLOK:  cpu time    1.5642: real time    1.5681
    SETDIJ:  cpu time    0.0067: real time    0.0067
     EDDAV:  cpu time    0.4391: real time    0.4401
       DOS:  cpu time    0.0002: real time    0.0002
    --------------------------------------------
      LOOP:  cpu time    2.0102: real time    2.0152

 eigenvalue-minimisations  :    16
 total energy-change (2. order) : 0.6228931E+02  (-0.1516982E+03)
 number of electron       8.0000000 magnetization 
 augmentation part        8.0000000 magnetization 

 Free energy of the ion-electron system (eV)
  ---------------------------------------------------
  alpha Z        PSCENC =         0.24311671
  Ewald energy   TEWEN  =       128.67457665
  -Hartree energ DENC   =      -243.92016687
  -exchange      EXHF   =         0.00000000
  -V(xc)+E(xc)   XCENC  =        22.01065455
  PAW double counting   =       117.05815612     -117.66307307
  entropy T*S    EENTRO =        -0.00000000
  eigenvalues    EBANDS =       -41.15571134
  atomic energy  EATOM  =       197.04175453
  Solvation  Ediel_sol  =         0.00000000
  ---------------------------------------------------
  free energy    TOTEN  =        62.28930729 eV

  energy without entropy =       62.28930729  energy(sigma->0) =       62.28930729


--------------------------------------------------------------------------------------------------------




--------------------------------------- Iteration      1(   2)  ---------------------------------------


     EDDAV:  cpu time    0.7855: real time    0.7876
       DOS:  cpu time    0.0001: real time    0.0001
    --------------------------------------------
      LOOP:  cpu time    0.7856: real time    0.7877

 eigenvalue-minimisations  :    32
 total energy-change (2. order) :-0.7485272E+02  (-0.7485272E+02)
 number of electron       8.0000000 magnetization 
 augmentation part        8.0000000 magnetization 

 Free energy of the ion-electron system (eV)
  ---------------------------------------------------
  alpha Z        PSCENC =         0.24311671
  Ewald energy   TEWEN  =       128.67457665
  -Hartree energ DENC   =      -243.92016687
  -exchange      EXHF   =         0.00000000
  -V(xc)+E(xc)   XCENC  =        22.01065455
  PAW double counting   =       117.05815612     -117.66307307
  entropy T*S    EENTRO =        -0.00000000
  eigenvalues    EBANDS =      -116.00842728
  atomic energy  EATOM  =       197.04175453
  Solvation  Ediel_sol  =         0.00000000
  ---------------------------------------------------
  free energy    TOTEN  =       -12.56340866 eV

  energy without entropy =      -12.56340866  energy(sigma->0) =      -12.56340866


--------------------------------------------------------------------------------------------------------




--------------------------------------- Iteration      1(   3)  ---------------------------------------


     EDDAV:  cpu time    0.4406: real time    0.4416
       DOS:  cpu time    0.0001: real time    0.0001
    --------------------------------------------
      LOOP:  cpu time    0.4407: real time    0.4417

 eigenvalue-minimisations  :    16
 total energy-change (2. order) :-0.1406676E+02  (-0.1406676E+02)
 number of electron       8.0000000 magnetization 
 augmentation part        8.0000000 magnetization 

 Free energy of the ion-electron system (eV)
  ---------------------------------------------------
  alpha Z        PSCENC =         0.24311671
  Ewald energy   TEWEN  =       128.67457665
  -Hartree energ DENC   =      -243.92016687
  -exchange      EXHF   =         0.00000000
  -V(xc)+E(xc)   XCENC  =        22.01065455
  PAW double counting   =       117.05815612     -117.66307307
  entropy T*S    EENTRO =        -0.00000000
  eigenvalues    EBANDS =      -130.07518634
  atomic energy  EATOM  =       197.04175453
  Solvation  Ediel_sol  =         0.00000000
  ---------------------------------------------------
  free energy    TOTEN  =       -26.63016772 eV

  energy without entropy =      -26.63016772  energy(sigma->0) =      -26.63016772


--------------------------------------------------------------------------------------------------------




--------------------------------------- Iteration      1(   4)  ---------------------------------------


     EDDAV:  cpu time    0.7846: real time    0.7865
       DOS:  cpu time    0.0001: real time    0.0001
    --------------------------------------------
      LOOP:  cpu time    0.7847: real time    0.7866

 eigenvalue-minimisations  :    32
 total energy-change (2. order) :-0.8388818E+00  (-0.8388818E+00)
 number of electron       8.0000000 magnetization 
 augmentation part        8.0000000 magnetization 

 Free energy of the ion-electron system (eV)
  ---------------------------------------------------
  alpha Z        PSCENC =         0.24311671
  Ewald energy   TEWEN  =       128.67457665
  -Hartree energ DENC   =      -243.92016687
  -exchange      EXHF   =         0.00000000
  -V(xc)+E(xc)   XCENC  =        22.01065455
  PAW double counting   =       117.05815612     -117.66307307
  entropy T*S    EENTRO =        -0.00000000
  eigenvalues    EBANDS =      -130.91406816
  atomic energy  EATOM  =       197.04175453
  Solvation  Ediel_sol  =         0.00000000
  ---------------------------------------------------
  free energy    TOTEN  =       -27.46904954 eV

  energy without entropy =      -27.46904954  energy(sigma->0) =      -27.46904954


--------------------------------------------------------------------------------------------------------




--------------------------------------- Iteration      1(   5)  ---------------------------------------


     EDDAV:  cpu time    0.7892: real time    0.7910
       DOS:  cpu time    0.0001: real time    0.0001
    CHARGE:  cpu time    0.0881: real time    0.0883
    MIXING:  cpu time    0.0327: real time    0.0328
    --------------------------------------------
      LOOP:  cpu time    0.9100: real time    0.9122

 eigenvalue-minimisations  :    32
 total energy-change (2. order) :-0.4442536E-03  (-0.4442536E-03)
 number of electron       8.0000001 magnetization 
 augmentation part        0.2251682 magnetization 

 Broyden mixing:
  rms(total) = 0.87146E+00    rms(broyden)= 0.87125E+00
  rms(prec ) = 0.12295E+01
  weight for this iteration     100.00

 Free energy of the ion-electron system (eV)
  ---------------------------------------------------
  alpha Z        PSCENC =         0.24311671
  Ewald energy   TEWEN  =       128.67457665
  -Hartree energ DENC   =      -243.92016687
  -exchange      EXHF   =         0.00000000
  -V(xc)+E(xc)   XCENC  =        22.01065455
  PAW double counting   =       117.05815612     -117.66307307
  entropy T*S    EENTRO =        -0.00000000
  eigenvalues    EBANDS =      -130.91451242
  atomic energy  EATOM  =       197.04175453
  Solvation  Ediel_sol  =         0.00000000
  ---------------------------------------------------
  free energy    TOTEN  =       -27.46949379 eV

  energy without entropy =      -27.46949379  energy(sigma->0) =      -27.46949379


--------------------------------------------------------------------------------------------------------




--------------------------------------- Iteration      1(   6)  ---------------------------------------


    POTLOK:  cpu time    1.5655: real time    1.5692
    SETDIJ:  cpu time    0.0063: real time    0.0063
     EDDAV:  cpu time    0.6208: real time    0.6223
       DOS:  cpu time    0.0001: real time    0.0001
    CHARGE:  cpu time    0.0806: real time    0.0808
    MIXING:  cpu time    0.0335: real time    0.0336
    --------------------------------------------
      LOOP:  cpu time    2.3068: real time    2.3122

 eigenvalue-minimisations  :    24
 total energy-change (2. order) : 0.2882792E+01  (-0.8841938E+00)
 number of electron       8.0000001 magnetization 
 augmentation part        0.1971101 magnetization 

 Broyden mixing:
  rms(total) = 0.44492E+00    rms(broyden)= 0.44481E+00
  rms(prec ) = 0.55713E+00
  weight for this iteration     100.00

 eigenvalues of (default mixing * dielectric matrix)
  average eigenvalue GAMMA=   1.1988
  1.1988

 Free energy of the ion-electron system (eV)
  ---------------------------------------------------
  alpha Z        PSCENC =         0.24311671
  Ewald energy   TEWEN  =       128.67457665
  -Hartree energ DENC   =      -263.63756725
  -exchange      EXHF   =         0.00000000
  -V(xc)+E(xc)   XCENC  =        23.20660719
  PAW double counting   =       238.43851809     -239.21833457
  entropy T*S    EENTRO =        -0.00000000
  eigenvalues    EBANDS =      -109.33537364
  atomic energy  EATOM  =       197.04175453
  Solvation  Ediel_sol  =         0.00000000
  ---------------------------------------------------
  free energy    TOTEN  =       -24.58670229 eV

  energy without entropy =      -24.58670229  energy(sigma->0) =      -24.58670229


--------------------------------------------------------------------------------------------------------




--------------------------------------- Iteration      1(   7)  ---------------------------------------


    POTLOK:  cpu time    1.5843: real time    1.5881
    SETDIJ:  cpu time    0.0065: real time    0.0065
     EDDAV:  cpu time    0.8402: real time    0.8422
       DOS:  cpu time    0.0001: real time    0.0001
    CHARGE:  cpu time    0.0906: real time    0.0908
    MIXING:  cpu time    0.0345: real time    0.0346
    --------------------------------------------
      LOOP:  cpu time    2.5562: real time    2.5622

 eigenvalue-minimisations  :    32
 total energy-change (2. order) : 0.4802325E+00  (-0.7353796E-01)
 number of electron       8.0000001 magnetization 
 augmentation part        0.1886937 magnetization 

 Broyden mixing:
  rms(total) = 0.22749E+00    rms(broyden)= 0.22744E+00
  rms(prec ) = 0.27932E+00
  weight for this iteration     100.00

 eigenvalues of (default mixing * dielectric matrix)
  average eigenvalue GAMMA=   1.6992
  1.2525  2.1459

 Free energy of the ion-electron system (eV)
  ---------------------------------------------------
  alpha Z        PSCENC =         0.24311671
  Ewald energy   TEWEN  =       128.67457665
  -Hartree energ DENC   =      -273.67988624
  -exchange      EXHF   =         0.00000000
  -V(xc)+E(xc)   XCENC  =        23.96221391
  PAW double counting   =       365.67284014     -366.48054546
  entropy T*S    EENTRO =        -0.00000000
  eigenvalues    EBANDS =       -99.54054002
  atomic energy  EATOM  =       197.04175453
  Solvation  Ediel_sol  =         0.00000000
  ---------------------------------------------------
  free energy    TOTEN  =       -24.10646978 eV

  energy without entropy =      -24.10646978  energy(sigma->0) =      -24.10646978


--------------------------------------------------------------------------------------------------------




--------------------------------------- Iteration      1(   8)  ---------------------------------------


    POTLOK:  cpu time    1.6155: real time    1.6194
    SETDIJ:  cpu time    0.0064: real time    0.0064
     EDDAV:  cpu time    0.6405: real time    0.6420
       DOS:  cpu time    0.0001: real time    0.0001
    CHARGE:  cpu time    0.0867: real time    0.0869
    MIXING:  cpu time    0.0351: real time    0.0352
    --------------------------------------------
      LOOP:  cpu time    2.3843: real time    2.3899

 eigenvalue-minimisations  :    24
 total energy-change (2. order) : 0.1633799E+00  (-0.1845190E-01)
 number of electron       8.0000001 magnetization 
 augmentation part        0.1861175 magnetization 

 Broyden mixing:
  rms(total) = 0.27091E-01    rms(broyden)= 0.27062E-01
  rms(prec ) = 0.55191E-01
  weight for this iteration     100.00

 eigenvalues of (default mixing * dielectric matrix)
  average eigenvalue GAMMA=   1.5418
  2.1501  1.1060  1.3694

 Free energy of the ion-electron system (eV)
  ---------------------------------------------------
  alpha Z        PSCENC =         0.24311671
  Ewald energy   TEWEN  =       128.67457665
  -Hartree energ DENC   =      -280.67819205
  -exchange      EXHF   =         0.00000000
  -V(xc)+E(xc)   XCENC  =        24.58713526
  PAW double counting   =       478.84952522     -479.64261070
  entropy T*S    EENTRO =        -0.00000000
  eigenvalues    EBANDS =       -93.01839550
  atomic energy  EATOM  =       197.04175453
  Solvation  Ediel_sol  =         0.00000000
  ---------------------------------------------------
  free energy    TOTEN  =       -23.94308988 eV

  energy without entropy =      -23.94308988  energy(sigma->0) =      -23.94308988


--------------------------------------------------------------------------------------------------------




--------------------------------------- Iteration      1(   9)  ---------------------------------------


    POTLOK:  cpu time    1.6208: real time    1.6246
    SETDIJ:  cpu time    0.0065: real time    0.0065
     EDDAV:  cpu time    0.8473: real time    0.8493
       DOS:  cpu time    0.0001: real time    0.0001
    CHARGE:  cpu time    0.0873: real time    0.0875
    MIXING:  cpu time    0.0361: real time    0.0362
    --------------------------------------------
      LOOP:  cpu time    2.5981: real time    2.6043

 eigenvalue-minimisations  :    32
 total energy-change (2. order) : 0.6632635E-02  (-0.3561754E-03)
 number of electron       8.0000001 magnetization 
 augmentation part        0.1855735 magnetization 

 Broyden mixing:
  rms(total) = 0.16863E-01    rms(broyden)= 0.16859E-01
  rms(prec ) = 0.37246E-01
  weight for this iteration     100.00

 eigenvalues of (default mixing * dielectric matrix)
  average eigenvalue GAMMA=   1.8959
  2.9598  2.4569  1.2010  0.9660

 Free energy of the ion-electron system (eV)
  ---------------------------------------------------
  alpha Z        PSCENC =         0.24311671
  Ewald energy   TEWEN  =       128.67457665
  -Hartree energ DENC   =      -281.96220223
  -exchange      EXHF   =         0.00000000
  -V(xc)+E(xc)   XCENC  =        24.65504766
  PAW double counting   =       476.50110367     -477.29225929
  entropy T*S    EENTRO =        -0.00000000
  eigenvalues    EBANDS =       -91.79759495
  atomic energy  EATOM  =       197.04175453
  Solvation  Ediel_sol  =         0.00000000
  ---------------------------------------------------
  free energy    TOTEN  =       -23.93645724 eV

  energy without entropy =      -23.93645724  energy(sigma->0) =      -23.93645724


--------------------------------------------------------------------------------------------------------




--------------------------------------- Iteration      1(  10)  ---------------------------------------


    POTLOK:  cpu time    1.5331: real time    1.5367
    SETDIJ:  cpu time    0.0064: real time    0.0065
     EDDAV:  cpu time    0.4744: real time    0.4755
       DOS:  cpu time    0.0001: real time    0.0001
    CHARGE:  cpu time    0.0912: real time    0.0914
    MIXING:  cpu time    0.0370: real time    0.0371
    --------------------------------------------
      LOOP:  cpu time    2.1422: real time    2.1473

 eigenvalue-minimisations  :    16
 total energy-change (2. order) : 0.9138405E-02  (-0.5829533E-03)
 number of electron       8.0000001 magnetization 
 augmentation part        0.1853643 magnetization 

 Broyden mixing:
  rms(total) = 0.71944E-02    rms(broyden)= 0.71930E-02
  rms(prec ) = 0.16592E-01
  weight for this iteration     100.00

 eigenvalues of (default mixing * dielectric matrix)
  average eigenvalue GAMMA=   1.8269
  3.0087  2.2576  0.9923  1.2035  1.6725

 Free energy of the ion-electron system (eV)
  ---------------------------------------------------
  alpha Z        PSCENC =         0.24311671
  Ewald energy   TEWEN  =       128.67457665
  -Hartree energ DENC   =      -283.62613603
  -exchange      EXHF   =         0.00000000
  -V(xc)+E(xc)   XCENC  =        24.72935343
  PAW double counting   =       466.60627052     -467.39298435
  entropy T*S    EENTRO =        -0.00000000
  eigenvalues    EBANDS =       -90.20327030
  atomic energy  EATOM  =       197.04175453
  Solvation  Ediel_sol  =         0.00000000
  ---------------------------------------------------
  free energy    TOTEN  =       -23.92731884 eV

  energy without entropy =      -23.92731884  energy(sigma->0) =      -23.92731884


--------------------------------------------------------------------------------------------------------




--------------------------------------- Iteration      1(  11)  ---------------------------------------


    POTLOK:  cpu time    1.4768: real time    1.4803
    SETDIJ:  cpu time    0.0064: real time    0.0064
     EDDAV:  cpu time    0.6544: real time    0.6560
       DOS:  cpu time    0.0001: real time    0.0001
    CHARGE:  cpu time    0.0916: real time    0.0919
    MIXING:  cpu time    0.0380: real time    0.0381
    --------------------------------------------
      LOOP:  cpu time    2.2674: real time    2.2728

 eigenvalue-minimisations  :    24
 total energy-change (2. order) :-0.6682001E-02  (-0.2442681E-03)
 number of electron       8.0000001 magnetization 
 augmentation part        0.1850266 magnetization 

 Broyden mixing:
  rms(total) = 0.58157E-02    rms(broyden)= 0.58150E-02
  rms(prec ) = 0.10644E-01
  weight for this iteration     100.00

 eigenvalues of (default mixing * dielectric matrix)
  average eigenvalue GAMMA=   2.1026
  4.3588  2.8292  2.2137  1.2311  0.9915  0.9915

 Free energy of the ion-electron system (eV)
  ---------------------------------------------------
  alpha Z        PSCENC =         0.24311671
  Ewald energy   TEWEN  =       128.67457665
  -Hartree energ DENC   =      -284.39891249
  -exchange      EXHF   =         0.00000000
  -V(xc)+E(xc)   XCENC  =        24.76192093
  PAW double counting   =       470.11315660     -470.90120460
  entropy T*S    EENTRO =        -0.00000000
  eigenvalues    EBANDS =       -89.46840917
  atomic energy  EATOM  =       197.04175453
  Solvation  Ediel_sol  =         0.00000000
  ---------------------------------------------------
  free energy    TOTEN  =       -23.93400084 eV

  energy without entropy =      -23.93400084  energy(sigma->0) =      -23.93400084


--------------------------------------------------------------------------------------------------------




--------------------------------------- Iteration      1(  12)  ---------------------------------------


    POTLOK:  cpu time    1.4391: real time    1.4426
    SETDIJ:  cpu time    0.0064: real time    0.0064
     EDDAV:  cpu time    0.4668: real time    0.4679
       DOS:  cpu time    0.0001: real time    0.0001
    CHARGE:  cpu time    0.0864: real time    0.0866
    MIXING:  cpu time    0.0374: real time    0.0375
    --------------------------------------------
      LOOP:  cpu time    2.0362: real time    2.0410

 eigenvalue-minimisations  :    16
 total energy-change (2. order) :-0.4284076E-02  (-0.5363335E-04)
 number of electron       8.0000001 magnetization 
 augmentation part        0.1851171 magnetization 

 Broyden mixing:
  rms(total) = 0.22492E-02    rms(broyden)= 0.22491E-02
  rms(prec ) = 0.51303E-02
  weight for this iteration     100.00

 eigenvalues of (default mixing * dielectric matrix)
  average eigenvalue GAMMA=   2.3157
  5.0840  3.2698  2.6116  2.0023  1.2274  1.0073  1.0073

 Free energy of the ion-electron system (eV)
  ---------------------------------------------------
  alpha Z        PSCENC =         0.24311671
  Ewald energy   TEWEN  =       128.67457665
  -Hartree energ DENC   =      -284.33221803
  -exchange      EXHF   =         0.00000000
  -V(xc)+E(xc)   XCENC  =        24.74161292
  PAW double counting   =       466.26029864     -467.04811366
  entropy T*S    EENTRO =        -0.00000000
  eigenvalues    EBANDS =       -89.51931268
  atomic energy  EATOM  =       197.04175453
  Solvation  Ediel_sol  =         0.00000000
  ---------------------------------------------------
  free energy    TOTEN  =       -23.93828491 eV

  energy without entropy =      -23.93828491  energy(sigma->0) =      -23.93828491


--------------------------------------------------------------------------------------------------------




--------------------------------------- Iteration      1(  13)  ---------------------------------------


    POTLOK:  cpu time    1.3827: real time    1.3860
    SETDIJ:  cpu time    0.0064: real time    0.0064
     EDDAV:  cpu time    0.8413: real time    0.8433
       DOS:  cpu time    0.0001: real time    0.0001
    CHARGE:  cpu time    0.0902: real time    0.0905
    MIXING:  cpu time    0.0405: real time    0.0406
    --------------------------------------------
      LOOP:  cpu time    2.3613: real time    2.3669

 eigenvalue-minimisations  :    32
 total energy-change (2. order) :-0.4149097E-02  (-0.9767890E-04)
 number of electron       8.0000001 magnetization 
 augmentation part        0.1851119 magnetization 

 Broyden mixing:
  rms(total) = 0.25433E-02    rms(broyden)= 0.25430E-02
  rms(prec ) = 0.34188E-02
  weight for this iteration     100.00

 eigenvalues of (default mixing * dielectric matrix)
  average eigenvalue GAMMA=   2.2809
  5.8321  3.5553  2.4915  2.1747  1.2542  1.0525  0.9908  0.8959

 Free energy of the ion-electron system (eV)
  ---------------------------------------------------
  alpha Z        PSCENC =         0.24311671
  Ewald energy   TEWEN  =       128.67457665
  -Hartree energ DENC   =      -284.40488592
  -exchange      EXHF   =         0.00000000
  -V(xc)+E(xc)   XCENC  =        24.74123623
  PAW double counting   =       468.26226291     -469.04932186
  entropy T*S    EENTRO =        -0.00000000
  eigenvalues    EBANDS =       -89.45117327
  atomic energy  EATOM  =       197.04175453
  Solvation  Ediel_sol  =         0.00000000
  ---------------------------------------------------
  free energy    TOTEN  =       -23.94243401 eV

  energy without entropy =      -23.94243401  energy(sigma->0) =      -23.94243401


--------------------------------------------------------------------------------------------------------




--------------------------------------- Iteration      1(  14)  ---------------------------------------


    POTLOK:  cpu time    1.3751: real time    1.3783
    SETDIJ:  cpu time    0.0064: real time    0.0064
     EDDAV:  cpu time    0.4794: real time    0.4806
       DOS:  cpu time    0.0001: real time    0.0001
    CHARGE:  cpu time    0.0869: real time    0.0871
    MIXING:  cpu time    0.0393: real time    0.0394
    --------------------------------------------
      LOOP:  cpu time    1.9872: real time    1.9919

 eigenvalue-minimisations  :    16
 total energy-change (2. order) :-0.6328224E-03  (-0.7228217E-05)
 number of electron       8.0000001 magnetization 
 augmentation part        0.1850978 magnetization 

 Broyden mixing:
  rms(total) = 0.68329E-03    rms(broyden)= 0.68305E-03
  rms(prec ) = 0.14510E-02
  weight for this iteration     100.00

 eigenvalues of (default mixing * dielectric matrix)
  average eigenvalue GAMMA=   2.5641
  7.0434  4.4889  2.9263  2.3655  1.9553  1.2610  0.9841  0.9841  1.0682

 Free energy of the ion-electron system (eV)
  ---------------------------------------------------
  alpha Z        PSCENC =         0.24311671
  Ewald energy   TEWEN  =       128.67457665
  -Hartree energ DENC   =      -284.36154386
  -exchange      EXHF   =         0.00000000
  -V(xc)+E(xc)   XCENC  =        24.73532119
  PAW double counting   =       467.15352366     -467.94099266
  entropy T*S    EENTRO =        -0.00000000
  eigenvalues    EBANDS =       -89.48882305
  atomic energy  EATOM  =       197.04175453
  Solvation  Ediel_sol  =         0.00000000
  ---------------------------------------------------
  free energy    TOTEN  =       -23.94306683 eV

  energy without entropy =      -23.94306683  energy(sigma->0) =      -23.94306683


--------------------------------------------------------------------------------------------------------




--------------------------------------- Iteration      1(  15)  ---------------------------------------


    POTLOK:  cpu time    1.3774: real time    1.3806
    SETDIJ:  cpu time    0.0064: real time    0.0064
     EDDAV:  cpu time    0.4701: real time    0.4712
       DOS:  cpu time    0.0001: real time    0.0001
    CHARGE:  cpu time    0.0860: real time    0.0862
    MIXING:  cpu time    0.0401: real time    0.0402
    --------------------------------------------
      LOOP:  cpu time    1.9801: real time    1.9848

 eigenvalue-minimisations  :    16
 total energy-change (2. order) :-0.5590844E-03  (-0.5886124E-05)
 number of electron       8.0000001 magnetization 
 augmentation part        0.1850933 magnetization 

 Broyden mixing:
  rms(total) = 0.56719E-03    rms(broyden)= 0.56717E-03
  rms(prec ) = 0.74289E-03
  weight for this iteration     100.00

 eigenvalues of (default mixing * dielectric matrix)
  average eigenvalue GAMMA=   2.4590
  7.3474  4.5300  2.8287  2.4974  2.0653  1.2640  1.0534  1.0097  0.9971  0.9971

 Free energy of the ion-electron system (eV)
  ---------------------------------------------------
  alpha Z        PSCENC =         0.24311671
  Ewald energy   TEWEN  =       128.67457665
  -Hartree energ DENC   =      -284.35416546
  -exchange      EXHF   =         0.00000000
  -V(xc)+E(xc)   XCENC  =        24.73427411
  PAW double counting   =       466.85736417     -467.64480552
  entropy T*S    EENTRO =        -0.00000000
  eigenvalues    EBANDS =       -89.49574111
  atomic energy  EATOM  =       197.04175453
  Solvation  Ediel_sol  =         0.00000000
  ---------------------------------------------------
  free energy    TOTEN  =       -23.94362592 eV

  energy without entropy =      -23.94362592  energy(sigma->0) =      -23.94362592


--------------------------------------------------------------------------------------------------------




--------------------------------------- Iteration      1(  16)  ---------------------------------------


    POTLOK:  cpu time    1.3926: real time    1.3959
    SETDIJ:  cpu time    0.0064: real time    0.0064
     EDDAV:  cpu time    0.6627: real time    0.6643
       DOS:  cpu time    0.0001: real time    0.0001
    CHARGE:  cpu time    0.0913: real time    0.0915
    MIXING:  cpu time    0.0407: real time    0.0408
    --------------------------------------------
      LOOP:  cpu time    2.1938: real time    2.1990

 eigenvalue-minimisations  :    24
 total energy-change (2. order) :-0.5556233E-04  (-0.2411950E-06)
 number of electron       8.0000001 magnetization 
 augmentation part        0.1850983 magnetization 

 Broyden mixing:
  rms(total) = 0.25537E-03    rms(broyden)= 0.25534E-03
  rms(prec ) = 0.39776E-03
  weight for this iteration     100.00

 eigenvalues of (default mixing * dielectric matrix)
  average eigenvalue GAMMA=   2.6786
  8.2043  4.9683  3.8302  2.5484  2.5000  2.0458  1.2918  1.1092  0.9813  0.9813
  1.0043

 Free energy of the ion-electron system (eV)
  ---------------------------------------------------
  alpha Z        PSCENC =         0.24311671
  Ewald energy   TEWEN  =       128.67457665
  -Hartree energ DENC   =      -284.35713075
  -exchange      EXHF   =         0.00000000
  -V(xc)+E(xc)   XCENC  =        24.73447419
  PAW double counting   =       466.91253717     -467.69994744
  entropy T*S    EENTRO =        -0.00000000
  eigenvalues    EBANDS =       -89.49306254
  atomic energy  EATOM  =       197.04175453
  Solvation  Ediel_sol  =         0.00000000
  ---------------------------------------------------
  free energy    TOTEN  =       -23.94368148 eV

  energy without entropy =      -23.94368148  energy(sigma->0) =      -23.94368148


--------------------------------------------------------------------------------------------------------




--------------------------------------- Iteration      1(  17)  ---------------------------------------


    POTLOK:  cpu time    1.4759: real time    1.4795
    SETDIJ:  cpu time    0.0065: real time    0.0065
     EDDAV:  cpu time    0.4618: real time    0.4629
       DOS:  cpu time    0.0001: real time    0.0001
    CHARGE:  cpu time    0.0841: real time    0.0843
    MIXING:  cpu time    0.0418: real time    0.0419
    --------------------------------------------
      LOOP:  cpu time    2.0701: real time    2.0752

 eigenvalue-minimisations  :    16
 total energy-change (2. order) :-0.5608605E-04  (-0.3986477E-06)
 number of electron       8.0000001 magnetization 
 augmentation part        0.1850897 magnetization 

 Broyden mixing:
  rms(total) = 0.10022E-03    rms(broyden)= 0.10020E-03
  rms(prec ) = 0.16161E-03
  weight for this iteration     100.00

 eigenvalues of (default mixing * dielectric matrix)
  average eigenvalue GAMMA=   2.5575
  8.3877  5.1810  3.7895  2.7040  2.3741  1.9621  1.2734  1.1091  1.0016  1.0016
  0.9530  0.9530

 Free energy of the ion-electron system (eV)
  ---------------------------------------------------
  alpha Z        PSCENC =         0.24311671
  Ewald energy   TEWEN  =       128.67457665
  -Hartree energ DENC   =      -284.37555002
  -exchange      EXHF   =         0.00000000
  -V(xc)+E(xc)   XCENC  =        24.73558604
  PAW double counting   =       467.06512138     -467.85256296
  entropy T*S    EENTRO =        -0.00000000
  eigenvalues    EBANDS =       -89.47577990
  atomic energy  EATOM  =       197.04175453
  Solvation  Ediel_sol  =         0.00000000
  ---------------------------------------------------
  free energy    TOTEN  =       -23.94373757 eV

  energy without entropy =      -23.94373757  energy(sigma->0) =      -23.94373757


--------------------------------------------------------------------------------------------------------




--------------------------------------- Iteration      1(  18)  ---------------------------------------


    POTLOK:  cpu time    1.4912: real time    1.4948
    SETDIJ:  cpu time    0.0064: real time    0.0064
     EDDAV:  cpu time    0.8183: real time    0.8203
       DOS:  cpu time    0.0001: real time    0.0001
    CHARGE:  cpu time    0.0903: real time    0.0906
    MIXING:  cpu time    0.0437: real time    0.0438
    --------------------------------------------
      LOOP:  cpu time    2.4500: real time    2.4559

 eigenvalue-minimisations  :    32
 total energy-change (2. order) :-0.2215232E-05  (-0.2848388E-07)
 number of electron       8.0000001 magnetization 
 augmentation part        0.1850938 magnetization 

 Broyden mixing:
  rms(total) = 0.61017E-04    rms(broyden)= 0.61010E-04
  rms(prec ) = 0.91152E-04
  weight for this iteration     100.00

 eigenvalues of (default mixing * dielectric matrix)
  average eigenvalue GAMMA=   2.5341
  8.4600  5.2805  3.7397  2.6711  2.3522  1.8797  1.8797  1.5086  1.2285  1.0060
  1.0060  1.0030  0.9277

 Free energy of the ion-electron system (eV)
  ---------------------------------------------------
  alpha Z        PSCENC =         0.24311671
  Ewald energy   TEWEN  =       128.67457665
  -Hartree energ DENC   =      -284.37114747
  -exchange      EXHF   =         0.00000000
  -V(xc)+E(xc)   XCENC  =        24.73533616
  PAW double counting   =       467.04779189     -467.83520716
  entropy T*S    EENTRO =        -0.00000000
  eigenvalues    EBANDS =       -89.47996110
  atomic energy  EATOM  =       197.04175453
  Solvation  Ediel_sol  =         0.00000000
  ---------------------------------------------------
  free energy    TOTEN  =       -23.94373978 eV

  energy without entropy =      -23.94373978  energy(sigma->0) =      -23.94373978


--------------------------------------------------------------------------------------------------------




--------------------------------------- Iteration      1(  19)  ---------------------------------------


    POTLOK:  cpu time    1.5113: real time    1.5148
    SETDIJ:  cpu time    0.0064: real time    0.0064
     EDDAV:  cpu time    0.4544: real time    0.4554
       DOS:  cpu time    0.0001: real time    0.0001
    CHARGE:  cpu time    0.0824: real time    0.0826
    MIXING:  cpu time    0.0440: real time    0.0441
    --------------------------------------------
      LOOP:  cpu time    2.0985: real time    2.1035

 eigenvalue-minimisations  :    16
 total energy-change (2. order) :-0.4553708E-05  (-0.1891035E-07)
 number of electron       8.0000001 magnetization 
 augmentation part        0.1850957 magnetization 

 Broyden mixing:
  rms(total) = 0.51393E-04    rms(broyden)= 0.51388E-04
  rms(prec ) = 0.74581E-04
  weight for this iteration     100.00

 eigenvalues of (default mixing * dielectric matrix)
  average eigenvalue GAMMA=   2.5244
  8.5836  5.4132  4.0306  3.0817  2.5946  2.3380  1.8947  1.2806  1.1573  0.9849
  0.9687  0.9687  1.0224  1.0224

 Free energy of the ion-electron system (eV)
  ---------------------------------------------------
  alpha Z        PSCENC =         0.24311671
  Ewald energy   TEWEN  =       128.67457665
  -Hartree energ DENC   =      -284.36860334
  -exchange      EXHF   =         0.00000000
  -V(xc)+E(xc)   XCENC  =        24.73514705
  PAW double counting   =       467.03755816     -467.82495371
  entropy T*S    EENTRO =        -0.00000000
  eigenvalues    EBANDS =       -89.48234038
  atomic energy  EATOM  =       197.04175453
  Solvation  Ediel_sol  =         0.00000000
  ---------------------------------------------------
  free energy    TOTEN  =       -23.94374433 eV

  energy without entropy =      -23.94374433  energy(sigma->0) =      -23.94374433


--------------------------------------------------------------------------------------------------------




--------------------------------------- Iteration      1(  20)  ---------------------------------------


    POTLOK:  cpu time    1.5145: real time    1.5181
    SETDIJ:  cpu time    0.0064: real time    0.0064
     EDDAV:  cpu time    0.8177: real time    0.8196
       DOS:  cpu time    0.0001: real time    0.0001
    --------------------------------------------
      LOOP:  cpu time    2.3386: real time    2.3441

 eigenvalue-minimisations  :    32
 total energy-change (2. order) :-0.2962135E-06  (-0.4700485E-08)
 number of electron       8.0000001 magnetization 
 augmentation part        0.1850957 magnetization 

 Free energy of the ion-electron system (eV)
  ---------------------------------------------------
  alpha Z        PSCENC =         0.24311671
  Ewald energy   TEWEN  =       128.67457665
  -Hartree energ DENC   =      -284.36943768
  -exchange      EXHF   =         0.00000000
  -V(xc)+E(xc)   XCENC  =        24.73516952
  PAW double counting   =       467.03837239     -467.82577897
  entropy T*S    EENTRO =        -0.00000000
  eigenvalues    EBANDS =       -89.48151778
  atomic energy  EATOM  =       197.04175453
  Solvation  Ediel_sol  =         0.00000000
  ---------------------------------------------------
  free energy    TOTEN  =       -23.94374463 eV

  energy without entropy =      -23.94374463  energy(sigma->0) =      -23.94374463


--------------------------------------------------------------------------------------------------------




 average (electrostatic) potential at core
  the test charge radii are     0.5201  0.6991
  (the norm of the test charge is              1.0000)
       1 -41.1889       2 -41.5840       3 -41.7915       4 -41.4795       5 -57.9728



 E-fermi :  -8.5761     XC(G=0):  -0.7005     alpha+bet : -0.2114


 k-point     1 :       0.0000    0.0000    0.0000
  band No.  band energies     occupation 
      1     -16.8997      2.00000
      2      -9.6375      2.00000
      3      -9.3960      2.00000
      4      -8.8076      2.00000
      5      -0.5336      0.00000
      6       0.9751      0.00000
      7       0.9905      0.00000
      8       1.0562      0.00000


--------------------------------------------------------------------------------------------------------


 soft charge-density along one line, spin component           1
         0         1         2         3         4         5         6         7         8         9
 total charge-density along one line

 pseudopotential strength for first ion, spin component:           1
 -2.338  -4.028  -0.001   0.000  -0.001
 -4.028  -6.853  -0.004   0.001  -0.002
 -0.001  -0.004  -0.337  -0.001   0.002
  0.000   0.001  -0.001  -0.340  -0.001
 -0.001  -0.002   0.002  -0.001  -0.340
 total augmentation occupancy for first ion, spin component:           1
  3.430  -0.619   0.337  -0.115   0.164
 -0.619   0.127  -0.064   0.021  -0.030
  0.337  -0.064   0.036  -0.009   0.013
 -0.115   0.021  -0.009   0.011  -0.004
  0.164  -0.030   0.013  -0.004   0.015


------------------------ aborting loop because EDIFF is reached ----------------------------------------


    CHARGE:  cpu time    0.0863: real time    0.0865
    FORLOC:  cpu time    0.1051: real time    0.1054
    FORNL :  cpu time    0.1516: real time    0.1519
    STRESS:  cpu time    0.5514: real time    0.5527
    FORCOR:  cpu time    1.5882: real time    1.5920
    FORHAR:  cpu time    0.5040: real time    0.5052
    MIXING:  cpu time    0.0472: real time    0.0473
    OFIELD:  cpu time    0.0000: real time    0.0000

  FORCE on cell =-STRESS in cart. coord.  units (eV):
  Direction    XX          YY          ZZ          XY          YZ          ZX
  --------------------------------------------------------------------------------------
  Alpha Z     0.24312     0.24312     0.24312
  Ewald      45.09433    38.02644    45.55378    -2.35933     4.12695    -1.01230
  Hartree    95.29735    96.22712    92.84600    -0.69376     0.73234    -0.56036
  E(xc)     -27.18968   -27.23366   -27.18301    -0.00667     0.00934    -0.00968
  Local    -198.76521  -194.80518  -195.73750     2.57828    -3.76462     1.58348
  n-local   -15.84186   -15.89051   -15.89357    -0.01506    -0.02313    -0.04949
  augment     0.11361     0.12920     0.10390     0.00345    -0.00943    -0.00120
  Kinetic   100.39011   102.92696   100.05890     0.42123    -0.59202     0.54344
  Fock        0.00000     0.00000     0.00000     0.00000     0.00000     0.00000
  -------------------------------------------------------------------------------------
  Total      -0.65824    -0.37652    -0.00838    -0.07187     0.47943     0.49388
  in kB      -1.05839    -0.60540    -0.01347    -0.11557     0.77087     0.79411
  external pressure =       -0.56 kB  Pullay stress =        0.00 kB


 VOLUME and BASIS-vectors are now :
 -----------------------------------------------------------------------------
  energy-cutoff  :      400.00
  volume of cell :      996.44
      direct lattice vectors                 reciprocal lattice vectors
    10.006619500  0.000000000  0.000000000     0.099933849  0.002269562  0.000748798
    -0.221244500  9.741885200  0.000000000     0.000000000  0.102649536 -0.002424515
    -0.082073000  0.241428100 10.221626300     0.000000000 -0.000000000  0.097831790

  length of vectors
    10.006619500  9.744397179 10.224806488     0.099962422  0.102678165  0.097831790


 FORCES acting on ions
    electron-ion (+dipol)            ewald-force                    non-local-force                 convergence-correction
 -----------------------------------------------------------------------------------------------
   0.211E+02 0.446E+02 -.151E+02   -.227E+02 -.484E+02 0.162E+02   0.212E+01 0.428E+01 -.148E+01   -.377E-04 -.271E-04 0.392E-04
   -.382E+02 0.103E+02 0.350E+02   0.422E+02 -.112E+02 -.386E+02   -.396E+01 0.119E+01 0.370E+01   0.532E-04 -.319E-04 -.591E-04
   -.166E+02 -.239E+02 -.457E+02   0.189E+02 0.271E+02 0.514E+02   -.171E+01 -.252E+01 -.513E+01   -.101E-04 0.413E-05 0.880E-04
   0.404E+02 -.258E+02 0.220E+02   -.444E+02 0.286E+02 -.243E+02   0.429E+01 -.253E+01 0.222E+01   -.684E-04 0.564E-05 -.541E-05
   -.592E+01 -.402E+01 0.412E+01   0.600E+01 0.392E+01 -.466E+01   -.153E+01 -.161E+01 0.227E+00   -.276E-03 -.139E-03 0.235E-03
 -----------------------------------------------------------------------------------------------
   0.794E+00 0.120E+01 0.462E+00   0.000E+00 -.355E-14 -.711E-14   -.793E+00 -.120E+01 -.462E+00   -.339E-03 -.188E-03 0.298E-03


 POSITION                                       TOTAL-FORCE (eV/Angst)
 -----------------------------------------------------------------------------------
      4.43554      3.71075      4.86657         0.506053      0.450881     -0.298155
      5.69047      4.45989      3.80985         0.055231      0.230494      0.123310
      5.22121      5.14713      5.44436         0.568638      0.713749      0.578666
      4.05090      5.21091      4.08481         0.318581      0.320088     -0.090136
      4.90264      4.68357      4.53746        -1.448502     -1.715212     -0.313685
 -----------------------------------------------------------------------------------
    total drift:                                0.000184      0.000402      0.000563


--------------------------------------------------------------------------------------------------------



  FREE ENERGIE OF THE ION-ELECTRON SYSTEM (eV)
  ---------------------------------------------------
  free  energy   TOTEN  =       -23.94374463 eV

  energy  without entropy=      -23.94374463  energy(sigma->0) =      -23.94374463



--------------------------------------------------------------------------------------------------------


    POTLOK:  cpu time    1.5802: real time    1.5840


--------------------------------------------------------------------------------------------------------


     LOOP+:  cpu time   43.3285: real time   43.4610
    4ORBIT:  cpu time    0.0000: real time    0.0000

 total amount of memory used by VASP MPI-rank0   274695. kBytes
=======================================================================

   base      :      30000. kBytes
   nonlr-proj:       1235. kBytes
   fftplans  :      86584. kBytes
   grid      :     154542. kBytes
   one-center:         15. kBytes
   wavefun   :       2319. kBytes

  
  
 General timing and accounting informations for this job:
 ========================================================
  
                  Total CPU time used (sec):       45.016
                            User time (sec):       43.641
                          System time (sec):        1.375
                         Elapsed time (sec):       45.202
  
                   Maximum memory used (kb):      388980.
                   Average memory used (kb):           0.
  
                          Minor page faults:       225906
                          Major page faults:            0
                 Voluntary context switches:          147
